 Entering Gaussian System, Link 0=g16
 Initial command:
 /apps/brussel/RL8/skylake-ib/software/Gaussian/G16.A.03-intel-2022a/g16/l1.exe "/tmp/10134554/Gau-2385299.inp" -scrdir="/tmp/10134554/"
 Entering Link 1 = /apps/brussel/RL8/skylake-ib/software/Gaussian/G16.A.03-intel-2022a/g16/l1.exe.bin PID=   2385300.
  
 Copyright (c) 1988,1990,1992,1993,1995,1998,2003,2009,2016,
            Gaussian, Inc.  All Rights Reserved.
  
 This is part of the Gaussian(R) 16 program.  It is based on
 the Gaussian(R) 09 system (copyright 2009, Gaussian, Inc.),
 the Gaussian(R) 03 system (copyright 2003, Gaussian, Inc.),
 the Gaussian(R) 98 system (copyright 1998, Gaussian, Inc.),
 the Gaussian(R) 94 system (copyright 1995, Gaussian, Inc.),
 the Gaussian 92(TM) system (copyright 1992, Gaussian, Inc.),
 the Gaussian 90(TM) system (copyright 1990, Gaussian, Inc.),
 the Gaussian 88(TM) system (copyright 1988, Gaussian, Inc.),
 the Gaussian 86(TM) system (copyright 1986, Carnegie Mellon
 University), and the Gaussian 82(TM) system (copyright 1983,
 Carnegie Mellon University). Gaussian is a federally registered
 trademark of Gaussian, Inc.
  
 This software contains proprietary and confidential information,
 including trade secrets, belonging to Gaussian, Inc.
  
 This software is provided under written license and may be
 used, copied, transmitted, or stored only in accord with that
 written license.
  
 The following legend is applicable only to US Government
 contracts under FAR:
  
                    RESTRICTED RIGHTS LEGEND
  
 Use, reproduction and disclosure by the US Government is
 subject to restrictions as set forth in subparagraphs (a)
 and (c) of the Commercial Computer Software - Restricted
 Rights clause in FAR 52.227-19.
  
 Gaussian, Inc.
 340 Quinnipiac St., Bldg. 40, Wallingford CT 06492
  
  
 ---------------------------------------------------------------
 Warning -- This program may not be used in any manner that
 competes with the business of Gaussian, Inc. or will provide
 assistance to any competitor of Gaussian, Inc.  The licensee
 of this program is prohibited from giving any competitor of
 Gaussian, Inc. access to this program.  By using this program,
 the user acknowledges that Gaussian, Inc. is engaged in the
 business of creating and licensing software in the field of
 computational chemistry and represents and warrants to the
 licensee that it is not a competitor of Gaussian, Inc. and that
 it will not use this program in any manner prohibited above.
 ---------------------------------------------------------------
  

 Cite this work as:
 Gaussian 16, Revision A.03,
 M. J. Frisch, G. W. Trucks, H. B. Schlegel, G. E. Scuseria, 
 M. A. Robb, J. R. Cheeseman, G. Scalmani, V. Barone, 
 G. A. Petersson, H. Nakatsuji, X. Li, M. Caricato, A. V. Marenich, 
 J. Bloino, B. G. Janesko, R. Gomperts, B. Mennucci, H. P. Hratchian, 
 J. V. Ortiz, A. F. Izmaylov, J. L. Sonnenberg, D. Williams-Young, 
 F. Ding, F. Lipparini, F. Egidi, J. Goings, B. Peng, A. Petrone, 
 T. Henderson, D. Ranasinghe, V. G. Zakrzewski, J. Gao, N. Rega, 
 G. Zheng, W. Liang, M. Hada, M. Ehara, K. Toyota, R. Fukuda, 
 J. Hasegawa, M. Ishida, T. Nakajima, Y. Honda, O. Kitao, H. Nakai, 
 T. Vreven, K. Throssell, J. A. Montgomery, Jr., J. E. Peralta, 
 F. Ogliaro, M. J. Bearpark, J. J. Heyd, E. N. Brothers, K. N. Kudin, 
 V. N. Staroverov, T. A. Keith, R. Kobayashi, J. Normand, 
 K. Raghavachari, A. P. Rendell, J. C. Burant, S. S. Iyengar, 
 J. Tomasi, M. Cossi, J. M. Millam, M. Klene, C. Adamo, R. Cammi, 
 J. W. Ochterski, R. L. Martin, K. Morokuma, O. Farkas, 
 J. B. Foresman, and D. J. Fox, Gaussian, Inc., Wallingford CT, 2016.
 
 ******************************************
 Gaussian 16:  ES64L-G16RevA.03 25-Dec-2016
                18-Nov-2024 
 ******************************************
 %mem=32000MB
 %nprocshared=8
 Will use up to    8 processors via shared memory.
 %chk=FMTSExogd3.chk
 ----------------------------------------------------------------------
 # opt=(calcfc,ts,noeigentest) freq cc-pvdz empiricaldispersion=gd3 m06
 2x
 ----------------------------------------------------------------------
 1/5=1,10=4,11=1,18=20,26=3,38=1/1,3;
 2/9=110,12=2,17=6,18=5,40=1/2;
 3/5=16,11=2,25=1,30=1,71=2,74=-55,124=31,140=1/1,2,3;
 4//1;
 5/5=2,38=5/2;
 8/6=4,10=90,11=11/1;
 11/6=1,8=1,9=11,15=111,16=1/1,2,10;
 10/6=1,13=1/2;
 6/7=2,8=2,9=2,10=2,28=1/1;
 7/10=1,18=20,25=1/1,2,3,16;
 1/5=1,10=4,11=1,18=20,26=3/3(2);
 2/9=110/2;
 99//99;
 2/9=110/2;
 3/5=16,11=2,25=1,30=1,71=1,74=-55,124=31/1,2,3;
 4/5=5,16=3,69=1/1;
 5/5=2,38=5/2;
 7//1,2,3,16;
 1/5=1,11=1,18=20,26=3/3(-5);
 2/9=110/2;
 6/7=2,8=2,9=2,10=2,19=2,28=1/1;
 99/9=1/99;
 -------
 FMTSExo
 -------
 Symbolic Z-matrix:
 Charge =  0 Multiplicity = 1
 C                     2.82754   1.36816  -0.94544 
 C                     2.66316   2.48749  -0.08753 
 C                     1.66812   2.13674   0.79594 
 H                     3.36254   1.29483  -1.88975 
 H                     3.30034   3.36703  -0.06942 
 H                     1.3316    2.67306   1.67856 
 C                     1.27666   0.82149   0.43153 
 O                     1.73753   0.56571  -0.82132 
 C                     3.81453   0.28815   0.25056 
 H                     4.65756   0.9415    0.45901 
 C                     2.79934  -0.06972   1.15196 
 H                     2.71352   0.25622   2.18512 
 C                     2.33464  -1.44992   0.79292 
 C                     4.01116  -0.85894  -0.69567 
 N                     3.07336  -1.82071  -0.328 
 H                     2.90602  -2.67067  -0.85392 
 O                     4.78986  -0.95458  -1.61233 
 O                     1.48325  -2.12019   1.32362 
 C                     0.03911   0.01444   0.86596 
 H                    -0.14225   0.17313   1.90847 
 H                     0.21177  -1.0265    0.68838 
 S                    -1.37684   0.54927  -0.07076 
 C                    -2.82617  -0.31308   0.49859 
 H                    -2.99079  -0.09025   1.53211 
 H                    -2.68413  -1.36686   0.37916 
 C                    -4.0476    0.13678  -0.32441 
 O                    -4.59246  -1.03777  -0.93229 
 C                    -5.11905   0.78809   0.54352 
 C                    -5.95404  -1.22302  -0.53514 
 C                    -6.35361  -0.09248   0.40706 
 H                    -5.3288    1.82973   0.19722 
 H                    -6.56724  -1.2289   -1.47267 
 H                    -7.21418   0.48495  -0.01119 
 
 Add virtual bond connecting atoms C1         and C9         Dist= 3.57D+00.
 Add virtual bond connecting atoms C7         and C11        Dist= 3.60D+00.
 Add virtual bond connecting atoms H21        and O18        Dist= 3.39D+00.

 GradGradGradGradGradGradGradGradGradGradGradGradGradGradGradGradGradGrad
 Berny optimization.
 Initialization pass.
                           ----------------------------
                           !    Initial Parameters    !
                           ! (Angstroms and Degrees)  !
 --------------------------                            --------------------------
 ! Name  Definition              Value          Derivative Info.                !
 --------------------------------------------------------------------------------
 ! R1    R(1,2)                  1.4198         calculate D2E/DX2 analytically  !
 ! R2    R(1,4)                  1.0878         calculate D2E/DX2 analytically  !
 ! R3    R(1,8)                  1.3592         calculate D2E/DX2 analytically  !
 ! R4    R(1,9)                  1.8897         calculate D2E/DX2 analytically  !
 ! R5    R(2,3)                  1.3761         calculate D2E/DX2 analytically  !
 ! R6    R(2,5)                  1.0862         calculate D2E/DX2 analytically  !
 ! R7    R(3,6)                  1.0862         calculate D2E/DX2 analytically  !
 ! R8    R(3,7)                  1.4198         calculate D2E/DX2 analytically  !
 ! R9    R(7,8)                  1.3592         calculate D2E/DX2 analytically  !
 ! R10   R(7,11)                 1.9057         calculate D2E/DX2 analytically  !
 ! R11   R(7,19)                 1.54           calculate D2E/DX2 analytically  !
 ! R12   R(9,10)                 1.0868         calculate D2E/DX2 analytically  !
 ! R13   R(9,11)                 1.404          calculate D2E/DX2 analytically  !
 ! R14   R(9,14)                 1.4999         calculate D2E/DX2 analytically  !
 ! R15   R(11,12)                1.0867         calculate D2E/DX2 analytically  !
 ! R16   R(11,13)                1.4999         calculate D2E/DX2 analytically  !
 ! R17   R(13,15)                1.3927         calculate D2E/DX2 analytically  !
 ! R18   R(13,18)                1.2066         calculate D2E/DX2 analytically  !
 ! R19   R(14,15)                1.3927         calculate D2E/DX2 analytically  !
 ! R20   R(14,17)                1.2066         calculate D2E/DX2 analytically  !
 ! R21   R(15,16)                1.0134         calculate D2E/DX2 analytically  !
 ! R22   R(18,21)                1.7934         calculate D2E/DX2 analytically  !
 ! R23   R(19,20)                1.07           calculate D2E/DX2 analytically  !
 ! R24   R(19,21)                1.07           calculate D2E/DX2 analytically  !
 ! R25   R(19,22)                1.78           calculate D2E/DX2 analytically  !
 ! R26   R(22,23)                1.78           calculate D2E/DX2 analytically  !
 ! R27   R(23,24)                1.07           calculate D2E/DX2 analytically  !
 ! R28   R(23,25)                1.07           calculate D2E/DX2 analytically  !
 ! R29   R(23,26)                1.54           calculate D2E/DX2 analytically  !
 ! R30   R(26,27)                1.4304         calculate D2E/DX2 analytically  !
 ! R31   R(26,28)                1.525          calculate D2E/DX2 analytically  !
 ! R32   R(27,29)                1.4304         calculate D2E/DX2 analytically  !
 ! R33   R(28,30)                1.5226         calculate D2E/DX2 analytically  !
 ! R34   R(28,31)                1.1176         calculate D2E/DX2 analytically  !
 ! R35   R(29,30)                1.525          calculate D2E/DX2 analytically  !
 ! R36   R(29,32)                1.1203         calculate D2E/DX2 analytically  !
 ! R37   R(30,33)                1.1176         calculate D2E/DX2 analytically  !
 ! A1    A(2,1,4)              129.3906         calculate D2E/DX2 analytically  !
 ! A2    A(2,1,8)              108.5061         calculate D2E/DX2 analytically  !
 ! A3    A(2,1,9)               97.3894         calculate D2E/DX2 analytically  !
 ! A4    A(4,1,8)              115.7143         calculate D2E/DX2 analytically  !
 ! A5    A(4,1,9)              104.7153         calculate D2E/DX2 analytically  !
 ! A6    A(8,1,9)               91.3548         calculate D2E/DX2 analytically  !
 ! A7    A(1,2,3)              105.7056         calculate D2E/DX2 analytically  !
 ! A8    A(1,2,5)              125.486          calculate D2E/DX2 analytically  !
 ! A9    A(3,2,5)              128.304          calculate D2E/DX2 analytically  !
 ! A10   A(2,3,6)              128.3042         calculate D2E/DX2 analytically  !
 ! A11   A(2,3,7)              105.7057         calculate D2E/DX2 analytically  !
 ! A12   A(6,3,7)              125.4859         calculate D2E/DX2 analytically  !
 ! A13   A(3,7,8)              108.5064         calculate D2E/DX2 analytically  !
 ! A14   A(3,7,11)              96.6549         calculate D2E/DX2 analytically  !
 ! A15   A(3,7,19)             129.3914         calculate D2E/DX2 analytically  !
 ! A16   A(8,7,11)              89.4003         calculate D2E/DX2 analytically  !
 ! A17   A(8,7,19)             115.7143         calculate D2E/DX2 analytically  !
 ! A18   A(11,7,19)            106.8797         calculate D2E/DX2 analytically  !
 ! A19   A(1,8,7)              104.1813         calculate D2E/DX2 analytically  !
 ! A20   A(1,9,10)             100.5428         calculate D2E/DX2 analytically  !
 ! A21   A(1,9,11)             100.0412         calculate D2E/DX2 analytically  !
 ! A22   A(1,9,14)              96.101          calculate D2E/DX2 analytically  !
 ! A23   A(10,9,11)            126.2286         calculate D2E/DX2 analytically  !
 ! A24   A(10,9,14)            118.6252         calculate D2E/DX2 analytically  !
 ! A25   A(11,9,14)            107.7507         calculate D2E/DX2 analytically  !
 ! A26   A(7,11,9)             102.464          calculate D2E/DX2 analytically  !
 ! A27   A(7,11,12)             98.9774         calculate D2E/DX2 analytically  !
 ! A28   A(7,11,13)             95.2953         calculate D2E/DX2 analytically  !
 ! A29   A(9,11,12)            126.2291         calculate D2E/DX2 analytically  !
 ! A30   A(9,11,13)            107.7509         calculate D2E/DX2 analytically  !
 ! A31   A(12,11,13)           118.6255         calculate D2E/DX2 analytically  !
 ! A32   A(11,13,15)           105.8612         calculate D2E/DX2 analytically  !
 ! A33   A(11,13,18)           128.6459         calculate D2E/DX2 analytically  !
 ! A34   A(15,13,18)           125.4783         calculate D2E/DX2 analytically  !
 ! A35   A(9,14,15)            105.8612         calculate D2E/DX2 analytically  !
 ! A36   A(9,14,17)            128.6455         calculate D2E/DX2 analytically  !
 ! A37   A(15,14,17)           125.4787         calculate D2E/DX2 analytically  !
 ! A38   A(13,15,14)           112.6925         calculate D2E/DX2 analytically  !
 ! A39   A(13,15,16)           123.599          calculate D2E/DX2 analytically  !
 ! A40   A(14,15,16)           123.599          calculate D2E/DX2 analytically  !
 ! A41   A(13,18,21)            90.3265         calculate D2E/DX2 analytically  !
 ! A42   A(7,19,20)            109.4712         calculate D2E/DX2 analytically  !
 ! A43   A(7,19,21)            109.4713         calculate D2E/DX2 analytically  !
 ! A44   A(7,19,22)            109.4712         calculate D2E/DX2 analytically  !
 ! A45   A(20,19,21)           109.4712         calculate D2E/DX2 analytically  !
 ! A46   A(20,19,22)           109.4712         calculate D2E/DX2 analytically  !
 ! A47   A(21,19,22)           109.4712         calculate D2E/DX2 analytically  !
 ! A48   A(18,21,19)           130.4579         calculate D2E/DX2 analytically  !
 ! A49   A(19,22,23)           109.5            calculate D2E/DX2 analytically  !
 ! A50   A(22,23,24)           109.4712         calculate D2E/DX2 analytically  !
 ! A51   A(22,23,25)           109.4712         calculate D2E/DX2 analytically  !
 ! A52   A(22,23,26)           109.4712         calculate D2E/DX2 analytically  !
 ! A53   A(24,23,25)           109.4712         calculate D2E/DX2 analytically  !
 ! A54   A(24,23,26)           109.4713         calculate D2E/DX2 analytically  !
 ! A55   A(25,23,26)           109.4712         calculate D2E/DX2 analytically  !
 ! A56   A(23,26,27)           106.8196         calculate D2E/DX2 analytically  !
 ! A57   A(23,26,28)           112.2011         calculate D2E/DX2 analytically  !
 ! A58   A(27,26,28)           108.9629         calculate D2E/DX2 analytically  !
 ! A59   A(26,27,29)           110.5455         calculate D2E/DX2 analytically  !
 ! A60   A(26,28,30)           105.7644         calculate D2E/DX2 analytically  !
 ! A61   A(26,28,31)           110.7069         calculate D2E/DX2 analytically  !
 ! A62   A(30,28,31)           111.045          calculate D2E/DX2 analytically  !
 ! A63   A(27,29,30)           108.9629         calculate D2E/DX2 analytically  !
 ! A64   A(27,29,32)           106.8196         calculate D2E/DX2 analytically  !
 ! A65   A(30,29,32)           112.1816         calculate D2E/DX2 analytically  !
 ! A66   A(28,30,29)           105.7643         calculate D2E/DX2 analytically  !
 ! A67   A(28,30,33)           111.045          calculate D2E/DX2 analytically  !
 ! A68   A(29,30,33)           110.7069         calculate D2E/DX2 analytically  !
 ! D1    D(4,1,2,3)            166.6833         calculate D2E/DX2 analytically  !
 ! D2    D(4,1,2,5)            -20.9149         calculate D2E/DX2 analytically  !
 ! D3    D(8,1,2,3)             16.5857         calculate D2E/DX2 analytically  !
 ! D4    D(8,1,2,5)           -171.0125         calculate D2E/DX2 analytically  !
 ! D5    D(9,1,2,3)            -77.345          calculate D2E/DX2 analytically  !
 ! D6    D(9,1,2,5)             95.0568         calculate D2E/DX2 analytically  !
 ! D7    D(2,1,8,7)            -26.5665         calculate D2E/DX2 analytically  !
 ! D8    D(4,1,8,7)            178.7505         calculate D2E/DX2 analytically  !
 ! D9    D(9,1,8,7)             71.6886         calculate D2E/DX2 analytically  !
 ! D10   D(2,1,9,10)           -57.5186         calculate D2E/DX2 analytically  !
 ! D11   D(2,1,9,11)            72.5319         calculate D2E/DX2 analytically  !
 ! D12   D(2,1,9,14)          -178.1806         calculate D2E/DX2 analytically  !
 ! D13   D(4,1,9,10)            76.5628         calculate D2E/DX2 analytically  !
 ! D14   D(4,1,9,11)          -153.3866         calculate D2E/DX2 analytically  !
 ! D15   D(4,1,9,14)           -44.0992         calculate D2E/DX2 analytically  !
 ! D16   D(8,1,9,10)          -166.3764         calculate D2E/DX2 analytically  !
 ! D17   D(8,1,9,11)           -36.3259         calculate D2E/DX2 analytically  !
 ! D18   D(8,1,9,14)            72.9616         calculate D2E/DX2 analytically  !
 ! D19   D(1,2,3,6)            172.1144         calculate D2E/DX2 analytically  !
 ! D20   D(1,2,3,7)             -0.0004         calculate D2E/DX2 analytically  !
 ! D21   D(5,2,3,6)              0.0002         calculate D2E/DX2 analytically  !
 ! D22   D(5,2,3,7)           -172.1145         calculate D2E/DX2 analytically  !
 ! D23   D(2,3,7,8)            -16.5851         calculate D2E/DX2 analytically  !
 ! D24   D(2,3,7,11)            75.0161         calculate D2E/DX2 analytically  !
 ! D25   D(2,3,7,19)          -166.6849         calculate D2E/DX2 analytically  !
 ! D26   D(6,3,7,8)            171.0125         calculate D2E/DX2 analytically  !
 ! D27   D(6,3,7,11)           -97.3864         calculate D2E/DX2 analytically  !
 ! D28   D(6,3,7,19)            20.9127         calculate D2E/DX2 analytically  !
 ! D29   D(3,7,8,1)             26.5663         calculate D2E/DX2 analytically  !
 ! D30   D(11,7,8,1)           -70.2515         calculate D2E/DX2 analytically  !
 ! D31   D(19,7,8,1)          -178.7486         calculate D2E/DX2 analytically  !
 ! D32   D(3,7,11,9)           -72.248          calculate D2E/DX2 analytically  !
 ! D33   D(3,7,11,12)           58.1209         calculate D2E/DX2 analytically  !
 ! D34   D(3,7,11,13)          178.2364         calculate D2E/DX2 analytically  !
 ! D35   D(8,7,11,9)            36.3157         calculate D2E/DX2 analytically  !
 ! D36   D(8,7,11,12)          166.6846         calculate D2E/DX2 analytically  !
 ! D37   D(8,7,11,13)          -73.1998         calculate D2E/DX2 analytically  !
 ! D38   D(19,7,11,9)          153.0765         calculate D2E/DX2 analytically  !
 ! D39   D(19,7,11,12)         -76.5546         calculate D2E/DX2 analytically  !
 ! D40   D(19,7,11,13)          43.561          calculate D2E/DX2 analytically  !
 ! D41   D(3,7,19,20)          -40.7171         calculate D2E/DX2 analytically  !
 ! D42   D(3,7,19,21)         -160.7171         calculate D2E/DX2 analytically  !
 ! D43   D(3,7,19,22)           79.2829         calculate D2E/DX2 analytically  !
 ! D44   D(8,7,19,20)          170.929          calculate D2E/DX2 analytically  !
 ! D45   D(8,7,19,21)           50.929          calculate D2E/DX2 analytically  !
 ! D46   D(8,7,19,22)          -69.071          calculate D2E/DX2 analytically  !
 ! D47   D(11,7,19,20)          73.2289         calculate D2E/DX2 analytically  !
 ! D48   D(11,7,19,21)         -46.7711         calculate D2E/DX2 analytically  !
 ! D49   D(11,7,19,22)        -166.7711         calculate D2E/DX2 analytically  !
 ! D50   D(1,9,11,7)             0.0004         calculate D2E/DX2 analytically  !
 ! D51   D(1,9,11,12)         -111.1035         calculate D2E/DX2 analytically  !
 ! D52   D(1,9,11,13)           99.7882         calculate D2E/DX2 analytically  !
 ! D53   D(10,9,11,7)          111.1055         calculate D2E/DX2 analytically  !
 ! D54   D(10,9,11,12)           0.0016         calculate D2E/DX2 analytically  !
 ! D55   D(10,9,11,13)        -149.1067         calculate D2E/DX2 analytically  !
 ! D56   D(14,9,11,7)          -99.7882         calculate D2E/DX2 analytically  !
 ! D57   D(14,9,11,12)         149.1079         calculate D2E/DX2 analytically  !
 ! D58   D(14,9,11,13)          -0.0004         calculate D2E/DX2 analytically  !
 ! D59   D(1,9,14,15)         -100.9094         calculate D2E/DX2 analytically  !
 ! D60   D(1,9,14,17)           77.7471         calculate D2E/DX2 analytically  !
 ! D61   D(10,9,14,15)         153.547          calculate D2E/DX2 analytically  !
 ! D62   D(10,9,14,17)         -27.7966         calculate D2E/DX2 analytically  !
 ! D63   D(11,9,14,15)           1.7016         calculate D2E/DX2 analytically  !
 ! D64   D(11,9,14,17)        -179.642          calculate D2E/DX2 analytically  !
 ! D65   D(7,11,13,15)         103.2063         calculate D2E/DX2 analytically  !
 ! D66   D(7,11,13,18)         -75.4503         calculate D2E/DX2 analytically  !
 ! D67   D(9,11,13,15)          -1.7011         calculate D2E/DX2 analytically  !
 ! D68   D(9,11,13,18)         179.6424         calculate D2E/DX2 analytically  !
 ! D69   D(12,11,13,15)       -153.5483         calculate D2E/DX2 analytically  !
 ! D70   D(12,11,13,18)         27.7952         calculate D2E/DX2 analytically  !
 ! D71   D(11,13,15,14)          2.9246         calculate D2E/DX2 analytically  !
 ! D72   D(11,13,15,16)       -173.3885         calculate D2E/DX2 analytically  !
 ! D73   D(18,13,15,14)       -178.3638         calculate D2E/DX2 analytically  !
 ! D74   D(18,13,15,16)          5.3231         calculate D2E/DX2 analytically  !
 ! D75   D(11,13,18,21)         70.533          calculate D2E/DX2 analytically  !
 ! D76   D(15,13,18,21)       -107.88           calculate D2E/DX2 analytically  !
 ! D77   D(9,14,15,13)          -2.9249         calculate D2E/DX2 analytically  !
 ! D78   D(9,14,15,16)         173.3883         calculate D2E/DX2 analytically  !
 ! D79   D(17,14,15,13)        178.3638         calculate D2E/DX2 analytically  !
 ! D80   D(17,14,15,16)         -5.3231         calculate D2E/DX2 analytically  !
 ! D81   D(13,18,21,19)        -61.9945         calculate D2E/DX2 analytically  !
 ! D82   D(7,19,21,18)          59.2747         calculate D2E/DX2 analytically  !
 ! D83   D(20,19,21,18)        -60.7253         calculate D2E/DX2 analytically  !
 ! D84   D(22,19,21,18)        179.2747         calculate D2E/DX2 analytically  !
 ! D85   D(7,19,22,23)        -176.6121         calculate D2E/DX2 analytically  !
 ! D86   D(20,19,22,23)        -56.6122         calculate D2E/DX2 analytically  !
 ! D87   D(21,19,22,23)         63.3878         calculate D2E/DX2 analytically  !
 ! D88   D(19,22,23,24)         60.7235         calculate D2E/DX2 analytically  !
 ! D89   D(19,22,23,25)        -59.2765         calculate D2E/DX2 analytically  !
 ! D90   D(19,22,23,26)       -179.2765         calculate D2E/DX2 analytically  !
 ! D91   D(22,23,26,27)        121.802          calculate D2E/DX2 analytically  !
 ! D92   D(22,23,26,28)       -118.8553         calculate D2E/DX2 analytically  !
 ! D93   D(24,23,26,27)       -118.198          calculate D2E/DX2 analytically  !
 ! D94   D(24,23,26,28)          1.1447         calculate D2E/DX2 analytically  !
 ! D95   D(25,23,26,27)          1.8021         calculate D2E/DX2 analytically  !
 ! D96   D(25,23,26,28)        121.1448         calculate D2E/DX2 analytically  !
 ! D97   D(23,26,27,29)        121.4173         calculate D2E/DX2 analytically  !
 ! D98   D(28,26,27,29)          0.0            calculate D2E/DX2 analytically  !
 ! D99   D(23,26,28,30)       -118.0794         calculate D2E/DX2 analytically  !
 ! D100  D(23,26,28,31)        121.5484         calculate D2E/DX2 analytically  !
 ! D101  D(27,26,28,30)          0.0            calculate D2E/DX2 analytically  !
 ! D102  D(27,26,28,31)       -120.3722         calculate D2E/DX2 analytically  !
 ! D103  D(26,27,29,30)          0.0            calculate D2E/DX2 analytically  !
 ! D104  D(26,27,29,32)        121.3939         calculate D2E/DX2 analytically  !
 ! D105  D(26,28,30,29)          0.0            calculate D2E/DX2 analytically  !
 ! D106  D(26,28,30,33)       -120.1512         calculate D2E/DX2 analytically  !
 ! D107  D(31,28,30,29)        120.1512         calculate D2E/DX2 analytically  !
 ! D108  D(31,28,30,33)          0.0            calculate D2E/DX2 analytically  !
 ! D109  D(27,29,30,28)          0.0            calculate D2E/DX2 analytically  !
 ! D110  D(27,29,30,33)        120.3722         calculate D2E/DX2 analytically  !
 ! D111  D(32,29,30,28)       -118.0675         calculate D2E/DX2 analytically  !
 ! D112  D(32,29,30,33)          2.3047         calculate D2E/DX2 analytically  !
 --------------------------------------------------------------------------------
 Trust Radius=3.00D-01 FncErr=1.00D-07 GrdErr=1.00D-06 EigMax=2.50D+02 EigMin=1.00D-04
 Number of steps in this run=    198 maximum allowed number of steps=    198.
 Search for a saddle point of order  1.
 GradGradGradGradGradGradGradGradGradGradGradGradGradGradGradGradGradGrad

                          Input orientation:                          
 ---------------------------------------------------------------------
 Center     Atomic      Atomic             Coordinates (Angstroms)
 Number     Number       Type             X           Y           Z
 ---------------------------------------------------------------------
      1          6           0        2.827540    1.368160   -0.945439
      2          6           0        2.663160    2.487494   -0.087532
      3          6           0        1.668118    2.136745    0.795937
      4          1           0        3.362536    1.294835   -1.889748
      5          1           0        3.300338    3.367031   -0.069415
      6          1           0        1.331600    2.673058    1.678565
      7          6           0        1.276664    0.821489    0.431528
      8          8           0        1.737531    0.565711   -0.821317
      9          6           0        3.814529    0.288154    0.250556
     10          1           0        4.657564    0.941504    0.459007
     11          6           0        2.799335   -0.069716    1.151959
     12          1           0        2.713521    0.256224    2.185121
     13          6           0        2.334642   -1.449921    0.792920
     14          6           0        4.011160   -0.858936   -0.695673
     15          7           0        3.073363   -1.820707   -0.328002
     16          1           0        2.906015   -2.670667   -0.853920
     17          8           0        4.789855   -0.954583   -1.612328
     18          8           0        1.483253   -2.120192    1.323622
     19          6           0        0.039110    0.014439    0.865957
     20          1           0       -0.142251    0.173133    1.908466
     21          1           0        0.211770   -1.026500    0.688377
     22         16           0       -1.376837    0.549275   -0.070763
     23          6           0       -2.826173   -0.313081    0.498595
     24          1           0       -2.990793   -0.090248    1.532106
     25          1           0       -2.684127   -1.366864    0.379165
     26          6           0       -4.047601    0.136783   -0.324409
     27          8           0       -4.592455   -1.037773   -0.932285
     28          6           0       -5.119045    0.788090    0.543525
     29          6           0       -5.954043   -1.223018   -0.535141
     30          6           0       -6.353612   -0.092484    0.407060
     31          1           0       -5.328799    1.829735    0.197217
     32          1           0       -6.567235   -1.228903   -1.472672
     33          1           0       -7.214183    0.484954   -0.011187
 ---------------------------------------------------------------------
                    Distance matrix (angstroms):
                    1          2          3          4          5
     1  C    0.000000
     2  C    1.419836   0.000000
     3  C    2.228760   1.376100   0.000000
     4  H    1.087804   2.271463   3.285235   0.000000
     5  H    2.233034   1.086236   2.219590   2.758891   0.000000
     6  H    3.290288   2.219591   1.086236   4.330942   2.722676
     7  C    2.144785   2.228759   1.419834   3.156460   3.290286
     8  O    1.359209   2.255766   2.255765   2.076971   3.294710
     9  C    1.889700   2.505404   2.884754   2.408030   3.137874
    10  H    2.345953   2.581945   3.237115   2.705290   2.829218
    11  C    2.543101   2.845032   2.504970   3.381003   3.681574
    12  H    3.324126   3.185287   2.561066   4.254938   3.886439
    13  C    3.347599   4.048006   3.648073   3.973281   4.987907
    14  C    2.534422   3.658624   4.085199   2.546617   4.330850
    15  N    3.257381   4.334361   4.347341   3.497038   5.199135
    16  H    4.040626   5.220436   5.231216   4.123901   6.101207
    17  O    3.112966   4.323855   5.010118   2.678448   4.824478
    18  O    4.373139   4.961281   4.293499   5.051719   5.945752
    19  C    3.590133   3.729716   2.676332   4.503164   4.769738
    20  H    4.288650   4.148567   2.893256   5.288495   5.095529
    21  H    3.904613   4.354251   3.484055   4.686433   5.423709
    22  S    4.371775   4.480909   3.541607   5.130909   5.460377
    23  C    6.072584   6.190278   5.127252   6.825664   7.169379
    24  H    6.489852   6.421461   5.216023   7.347947   7.354997
    25  H    6.293918   6.608128   5.602768   6.985323   7.643612
    26  C    7.012099   7.114511   6.158284   7.661690   8.030674
    27  O    7.800321   8.110799   7.229045   8.345039   9.079814
    28  C    8.105659   7.990552   6.924461   8.838259   8.826814
    29  C    9.165083   9.392787   8.435468   9.745419  10.340649
    30  C    9.394482   9.391650   8.334797  10.079857  10.266159
    31  H    8.248914   8.024035   7.029194   8.954376   8.769058
    32  H    9.761378  10.046413   9.181242  10.253953  10.975461
    33  H   10.123689  10.078586   9.070564  10.772738  10.902519
                    6          7          8          9         10
     6  H    0.000000
     7  C    2.233031   0.000000
     8  O    3.294708   1.359206   0.000000
     9  C    3.727185   2.599607   2.353693   0.000000
    10  H    3.943049   3.383141   3.210459   1.086750   0.000000
    11  C    3.155054   1.905727   2.329167   1.404000   2.226154
    12  H    2.829733   2.336488   3.176006   2.226158   2.688565
    13  C    4.334676   2.531645   2.650486   2.346301   3.350579
    14  C    5.029118   3.401746   2.686037   1.499943   2.234437
    15  N    5.220533   3.284237   2.778992   2.308972   3.280074
    16  H    6.119449   4.062304   3.441011   3.286318   4.223681
    17  O    5.995772   4.435571   3.500525   2.442538   2.811241
    18  O    4.808765   3.080909   3.446665   3.519439   4.494195
    19  C    3.065798   1.539999   2.456711   3.835026   4.728126
    20  H    2.911137   2.148262   3.337576   4.291620   5.072430
    21  H    3.990140   2.148263   2.672500   3.860036   4.867313
    22  S    3.860859   2.714307   3.203574   5.207851   6.070296
    23  C    5.253231   4.257349   4.831339   6.672476   7.588272
    24  H    5.132289   4.500414   5.322211   6.935270   7.791882
    25  H    5.842557   4.525428   4.972631   6.707321   7.696452
    26  C    6.275380   5.421076   5.822255   7.884579   8.777313
    27  O    7.461986   6.305823   6.530865   8.592705   9.561176
    28  C    6.815588   6.396777   6.994632   8.952347   9.778178
    29  C    8.553391   7.576119   7.902010   9.915945  10.875647
    30  C    8.266041   7.684859   8.210282  10.176467  11.059739
    31  H    6.875064   6.686075   7.250392   9.272528  10.029204
    32  H    9.356665   8.328075   8.521387  10.632592  11.594748
    33  H    8.981841   8.509038   8.988660  11.033573  11.889824
                   11         12         13         14         15
    11  C    0.000000
    12  H    1.086750   0.000000
    13  C    1.499938   2.234436   0.000000
    14  C    2.346302   3.350585   2.318595   0.000000
    15  N    2.308971   3.280079   1.392716   1.392713   0.000000
    16  H    3.286317   4.223685   2.128091   2.128088   1.013423
    17  O    3.519438   4.494200   3.472556   1.206553   2.312144
    18  O    2.442538   2.811244   1.206553   3.472554   2.312142
    19  C    2.776279   2.991844   2.723812   4.356450   3.741656
    20  H    3.047000   2.870345   3.164450   5.009743   4.395152
    21  H    2.797470   3.185025   2.167210   4.047102   3.138870
    22  S    4.395295   4.680377   4.303233   5.603935   5.048492
    23  C    5.668550   5.818651   5.292735   6.962281   6.144976
    24  H    5.802630   5.752015   5.545752   7.387911   6.574837
    25  H    5.687545   5.918657   5.036481   6.800010   5.818484
    26  C    7.007342   7.212821   6.670763   8.128525   7.385114
    27  O    7.740786   8.047978   7.150586   8.608726   7.729354
    28  C    7.987914   8.020400   7.786420   9.359965   8.641813
    29  C    8.988773   9.204057   8.397472   9.973144   9.049542
    30  C    9.183237   9.246405   8.802118  10.451410   9.612228
    31  H    8.401548   8.432474   8.356993   9.760176   9.175942
    32  H    9.796175  10.085509   9.188317  10.613343   9.726337
    33  H   10.096094  10.170320   9.776011  11.326204  10.547514
                   16         17         18         19         20
    16  H    0.000000
    17  O    2.658755   0.000000
    18  O    2.658752   4.572971   0.000000
    19  C    4.287996   5.445225   2.617567   0.000000
    20  H    5.000989   6.163879   2.871175   1.070000   0.000000
    21  H    3.512964   5.124185   1.793424   1.070000   1.747303
    22  S    5.415181   6.531929   4.153370   1.780000   2.362844
    23  C    6.343933   7.929149   4.745258   2.907245   3.070436
    24  H    6.864694   8.436410   4.917441   3.104034   2.885344
    25  H    5.871123   7.745736   4.338959   3.092084   3.342377
    26  C    7.517642   8.997247   6.196797   4.258303   4.498757
    27  O    7.674604   9.407291   6.570767   5.078604   5.416685
    28  C    8.849714  10.289359   7.256514   5.225807   5.197087
    29  C    8.983203  10.801099   7.718374   6.277918   6.457351
    30  C    9.694214  11.357729   8.146665   6.410063   6.395762
    31  H    9.443022  10.649603   7.954544   5.705871   5.707275
    32  H    9.602292  11.361261   8.568782   7.117505   7.394472
    33  H   10.634216  12.195608   9.176813   7.321272   7.334475
                   21         22         23         24         25
    21  H    0.000000
    22  S    2.362844   0.000000
    23  C    3.126353   1.780000   0.000000
    24  H    3.441636   2.362844   1.070000   0.000000
    25  H    2.932180   2.362844   1.070000   1.747302   0.000000
    26  C    4.530034   2.714308   1.540000   2.148263   2.148263
    27  O    5.070232   3.687972   2.385864   3.088098   2.338786
    28  C    5.633055   3.799803   2.543985   2.505639   3.255713
    29  C    6.289107   4.930262   3.417626   3.786493   3.398382
    30  C    6.637452   5.040680   3.535515   3.546024   3.884578
    31  H    6.252777   4.162859   3.308417   3.306741   4.152787
    32  H    7.118006   5.662817   4.326681   4.807927   4.304284
    33  H    7.610431   5.838004   4.489028   4.533170   4.909482
                   26         27         28         29         30
    26  C    0.000000
    27  O    1.430371   0.000000
    28  C    1.524960   2.406052   0.000000
    29  C    2.351167   1.430371   2.430082   0.000000
    30  C    2.430082   2.406053   1.522560   1.524961   0.000000
    31  H    2.186241   3.168687   1.117564   3.201028   2.188424
    32  H    3.087420   2.056284   3.198526   1.120269   2.206915
    33  H    3.201027   3.168687   2.188424   2.186241   1.117563
                   31         32         33
    31  H    0.000000
    32  H    3.698313   0.000000
    33  H    2.325197   2.343456   0.000000
 Stoichiometry    C14H13NO4S
 Framework group  C1[X(C14H13NO4S)]
 Deg. of freedom    93
 Full point group                 C1      NOp   1
 Largest Abelian subgroup         C1      NOp   1
 Largest concise Abelian subgroup C1      NOp   1
                         Standard orientation:                         
 ---------------------------------------------------------------------
 Center     Atomic      Atomic             Coordinates (Angstroms)
 Number     Number       Type             X           Y           Z
 ---------------------------------------------------------------------
      1          6           0        2.843910    1.269857   -1.026741
      2          6           0        2.686802    2.451896   -0.256004
      3          6           0        1.673302    2.183467    0.635296
      4          1           0        3.390972    1.118436   -1.954702
      5          1           0        3.338862    3.319873   -0.292644
      6          1           0        1.333604    2.788775    1.470829
      7          6           0        1.264266    0.851490    0.362430
      8          8           0        1.738446    0.496610   -0.860948
      9          6           0        3.794793    0.264974    0.260504
     10          1           0        4.646006    0.918079    0.433465
     11          6           0        2.760766   -0.008906    1.169897
     12          1           0        2.665900    0.393635    2.174878
     13          6           0        2.277302   -1.404057    0.906020
     14          6           0        3.984921   -0.951776   -0.595767
     15          7           0        3.025382   -1.868425   -0.173052
     16          1           0        2.850795   -2.751987   -0.637664
     17          8           0        4.774836   -1.127389   -1.490733
     18          8           0        1.406894   -2.019432    1.471240
     19          6           0        0.006785    0.098927    0.835704
     20          1           0       -0.186647    0.336945    1.860805
     21          1           0        0.163826   -0.954944    0.737746
     22         16           0       -1.386131    0.586293   -0.159615
     23          6           0       -2.858228   -0.208025    0.448983
     24          1           0       -3.033679    0.093013    1.460661
     25          1           0       -2.732846   -1.269918    0.409480
     26          6           0       -4.059775    0.199821   -0.423683
     27          8           0       -4.616250   -1.007298   -0.952041
     28          6           0       -5.132003    0.930691    0.377352
     29          6           0       -5.986384   -1.140555   -0.563535
     30          6           0       -6.379630    0.062696    0.286788
     31          1           0       -5.318640    1.947266   -0.047727
     32          1           0       -6.586144   -1.205513   -1.507501
     33          1           0       -7.223968    0.621695   -0.186034
 ---------------------------------------------------------------------
 Rotational constants (GHZ):           0.8269744           0.1384350           0.1300863
 Standard basis: CC-pVDZ (5D, 7F)
 There are   369 symmetry adapted cartesian basis functions of A   symmetry.
 There are   349 symmetry adapted basis functions of A   symmetry.
   349 basis functions,   789 primitive gaussians,   369 cartesian basis functions
    76 alpha electrons       76 beta electrons
       nuclear repulsion energy      1653.3190854300 Hartrees.
 NAtoms=   33 NActive=   33 NUniq=   33 SFac= 1.00D+00 NAtFMM=   60 NAOKFM=F Big=F
 Integral buffers will be    131072 words long.
 Raffenetti 2 integral format.
 Two-electron integral symmetry is turned on.
 Nuclear repulsion after empirical dispersion term =     1653.3175613735 Hartrees.
 One-electron integrals computed using PRISM.
 NBasis=   349 RedAO= T EigKep=  4.65D-04  NBF=   349
 NBsUse=   349 1.00D-06 EigRej= -1.00D+00 NBFU=   349
 ExpMin= 1.22D-01 ExpMax= 1.11D+05 ExpMxC= 1.07D+03 IAcc=3 IRadAn=         5 AccDes= 0.00D+00
 Harris functional with IExCor= 1009 and IRadAn=       5 diagonalized for initial guess.
 HarFok:  IExCor= 1009 AccDes= 0.00D+00 IRadAn=         5 IDoV= 1 UseB2=F ITyADJ=14
 ICtDFT=  3500011 ScaDFX=  1.000000  1.000000  1.000000  1.000000
 FoFCou: FMM=F IPFlag=           0 FMFlag=      100000 FMFlg1=           0
         NFxFlg=           0 DoJE=T BraDBF=F KetDBF=T FulRan=T
         wScrn=  0.000000 ICntrl=       500 IOpCl=  0 I1Cent=   200000004 NGrid=           0
         NMat0=    1 NMatS0=      1 NMatT0=    0 NMatD0=    1 NMtDS0=    0 NMtDT0=    0
 Petite list used in FoFCou.
 Requested convergence on RMS density matrix=1.00D-08 within 128 cycles.
 Requested convergence on MAX density matrix=1.00D-06.
 Requested convergence on             energy=1.00D-06.
 No special actions if energy rises.
 Integral accuracy reduced to 1.0D-05 until final iterations.
 Initial convergence to 1.0D-05 achieved.  Increase integral accuracy.
 SCF Done:  E(RM062X) =  -1294.57863319     A.U. after   16 cycles
            NFock= 16  Conv=0.44D-08     -V/T= 2.0048
 DoSCS=F DFT=T ScalE2(SS,OS)=  1.000000  1.000000
 Range of M.O.s used for correlation:     1   349
 NBasis=   349 NAE=    76 NBE=    76 NFC=     0 NFV=     0
 NROrb=    349 NOA=    76 NOB=    76 NVA=   273 NVB=   273
 Symmetrizing basis deriv contribution to polar:
 IMax=3 JMax=2 DiffMx= 0.00D+00
 G2DrvN: will do    34 centers at a time, making    1 passes.
 Calling FoFCou, ICntrl=  3107 FMM=F I1Cent=   0 AccDes= 0.00D+00.
 End of G2Drv F.D. properties file   721 does not exist.
 End of G2Drv F.D. properties file   722 does not exist.
 End of G2Drv F.D. properties file   788 does not exist.
          IDoAtm=111111111111111111111111111111111
          Differentiating once with respect to nuclear coordinates.
 Keep R1 ints in memory in canonical form, NReq=1890450738.
          There are   102 degrees of freedom in the 1st order CPHF.  IDoFFX=6 NUNeed=     0.
     96 vectors produced by pass  0 Test12= 2.07D-14 1.00D-09 XBig12= 1.17D-01 8.23D-02.
 AX will form    96 AO Fock derivatives at one time.
     96 vectors produced by pass  1 Test12= 2.07D-14 1.00D-09 XBig12= 1.60D-02 2.62D-02.
     96 vectors produced by pass  2 Test12= 2.07D-14 1.00D-09 XBig12= 2.52D-04 2.26D-03.
     96 vectors produced by pass  3 Test12= 2.07D-14 1.00D-09 XBig12= 2.35D-06 1.88D-04.
     96 vectors produced by pass  4 Test12= 2.07D-14 1.00D-09 XBig12= 1.57D-08 1.32D-05.
     96 vectors produced by pass  5 Test12= 2.07D-14 1.00D-09 XBig12= 6.36D-11 7.71D-07.
     90 vectors produced by pass  6 Test12= 2.07D-14 1.00D-09 XBig12= 2.05D-13 4.21D-08.
     12 vectors produced by pass  7 Test12= 2.07D-14 1.00D-09 XBig12= 6.32D-16 1.90D-09.
 InvSVY:  IOpt=1 It=  1 EMax= 5.00D-16
 Solved reduced A of dimension   678 with   102 vectors.
 End of Minotr F.D. properties file   721 does not exist.
 End of Minotr F.D. properties file   722 does not exist.
 End of Minotr F.D. properties file   788 does not exist.

 **********************************************************************

            Population analysis using the SCF density.

 **********************************************************************

 Orbital symmetries:
       Occupied  (A) (A) (A) (A) (A) (A) (A) (A) (A) (A) (A) (A)
                 (A) (A) (A) (A) (A) (A) (A) (A) (A) (A) (A) (A)
                 (A) (A) (A) (A) (A) (A) (A) (A) (A) (A) (A) (A)
                 (A) (A) (A) (A) (A) (A) (A) (A) (A) (A) (A) (A)
                 (A) (A) (A) (A) (A) (A) (A) (A) (A) (A) (A) (A)
                 (A) (A) (A) (A) (A) (A) (A) (A) (A) (A) (A) (A)
                 (A) (A) (A) (A)
       Virtual   (A) (A) (A) (A) (A) (A) (A) (A) (A) (A) (A) (A)
                 (A) (A) (A) (A) (A) (A) (A) (A) (A) (A) (A) (A)
                 (A) (A) (A) (A) (A) (A) (A) (A) (A) (A) (A) (A)
                 (A) (A) (A) (A) (A) (A) (A) (A) (A) (A) (A) (A)
                 (A) (A) (A) (A) (A) (A) (A) (A) (A) (A) (A) (A)
                 (A) (A) (A) (A) (A) (A) (A) (A) (A) (A) (A) (A)
                 (A) (A) (A) (A) (A) (A) (A) (A) (A) (A) (A) (A)
                 (A) (A) (A) (A) (A) (A) (A) (A) (A) (A) (A) (A)
                 (A) (A) (A) (A) (A) (A) (A) (A) (A) (A) (A) (A)
                 (A) (A) (A) (A) (A) (A) (A) (A) (A) (A) (A) (A)
                 (A) (A) (A) (A) (A) (A) (A) (A) (A) (A) (A) (A)
                 (A) (A) (A) (A) (A) (A) (A) (A) (A) (A) (A) (A)
                 (A) (A) (A) (A) (A) (A) (A) (A) (A) (A) (A) (A)
                 (A) (A) (A) (A) (A) (A) (A) (A) (A) (A) (A) (A)
                 (A) (A) (A) (A) (A) (A) (A) (A) (A) (A) (A) (A)
                 (A) (A) (A) (A) (A) (A) (A) (A) (A) (A) (A) (A)
                 (A) (A) (A) (A) (A) (A) (A) (A) (A) (A) (A) (A)
                 (A) (A) (A) (A) (A) (A) (A) (A) (A) (A) (A) (A)
                 (A) (A) (A) (A) (A) (A) (A) (A) (A) (A) (A) (A)
                 (A) (A) (A) (A) (A) (A) (A) (A) (A) (A) (A) (A)
                 (A) (A) (A) (A) (A) (A) (A) (A) (A) (A) (A) (A)
                 (A) (A) (A) (A) (A) (A) (A) (A) (A) (A) (A) (A)
                 (A) (A) (A) (A) (A) (A) (A) (A) (A)
 The electronic state is 1-A.
 Alpha  occ. eigenvalues --  -89.89989 -19.72120 -19.69254 -19.62936 -19.62560
 Alpha  occ. eigenvalues --  -14.80084 -10.67293 -10.67076 -10.65008 -10.64139
 Alpha  occ. eigenvalues --  -10.64102 -10.64037 -10.59146 -10.58479 -10.58430
 Alpha  occ. eigenvalues --  -10.57771 -10.57688 -10.57535 -10.57232 -10.57145
 Alpha  occ. eigenvalues --   -8.24629  -6.16521  -6.16199  -6.15730  -1.26208
 Alpha  occ. eigenvalues --   -1.20612  -1.19374  -1.17558  -1.06051  -0.94363
 Alpha  occ. eigenvalues --   -0.92868  -0.90016  -0.89569  -0.87212  -0.83571
 Alpha  occ. eigenvalues --   -0.78152  -0.75957  -0.70471  -0.69920  -0.69356
 Alpha  occ. eigenvalues --   -0.68063  -0.66238  -0.65763  -0.63061  -0.62097
 Alpha  occ. eigenvalues --   -0.60704  -0.57861  -0.57150  -0.54588  -0.53376
 Alpha  occ. eigenvalues --   -0.53243  -0.52895  -0.52029  -0.51356  -0.51065
 Alpha  occ. eigenvalues --   -0.49964  -0.49113  -0.48779  -0.48307  -0.47271
 Alpha  occ. eigenvalues --   -0.46783  -0.45724  -0.44874  -0.44208  -0.42514
 Alpha  occ. eigenvalues --   -0.39479  -0.38010  -0.36026  -0.35634  -0.35007
 Alpha  occ. eigenvalues --   -0.34087  -0.32563  -0.31800  -0.30198  -0.28048
 Alpha  occ. eigenvalues --   -0.26438
 Alpha virt. eigenvalues --   -0.05973  -0.02886  -0.01494   0.03603   0.05835
 Alpha virt. eigenvalues --    0.08380   0.09265   0.10587   0.10963   0.11396
 Alpha virt. eigenvalues --    0.11940   0.13662   0.13940   0.14503   0.14631
 Alpha virt. eigenvalues --    0.14929   0.15011   0.17430   0.17930   0.18481
 Alpha virt. eigenvalues --    0.19200   0.19547   0.20067   0.20292   0.20938
 Alpha virt. eigenvalues --    0.22539   0.23870   0.24727   0.25771   0.26462
 Alpha virt. eigenvalues --    0.27671   0.30623   0.31023   0.32537   0.34687
 Alpha virt. eigenvalues --    0.36463   0.37609   0.38311   0.41641   0.42168
 Alpha virt. eigenvalues --    0.43320   0.43912   0.45239   0.46125   0.47122
 Alpha virt. eigenvalues --    0.48812   0.49280   0.49626   0.49967   0.50578
 Alpha virt. eigenvalues --    0.51021   0.51263   0.52393   0.53282   0.53670
 Alpha virt. eigenvalues --    0.54017   0.54402   0.54739   0.54846   0.55945
 Alpha virt. eigenvalues --    0.56521   0.57499   0.57778   0.58373   0.60054
 Alpha virt. eigenvalues --    0.60703   0.61283   0.61604   0.62907   0.63483
 Alpha virt. eigenvalues --    0.64309   0.64576   0.65413   0.65937   0.66746
 Alpha virt. eigenvalues --    0.67679   0.68134   0.68636   0.68876   0.70016
 Alpha virt. eigenvalues --    0.70365   0.70930   0.71387   0.72064   0.72358
 Alpha virt. eigenvalues --    0.72472   0.73295   0.74257   0.75145   0.75362
 Alpha virt. eigenvalues --    0.76351   0.76882   0.77960   0.78485   0.79412
 Alpha virt. eigenvalues --    0.79604   0.79992   0.82585   0.84039   0.84529
 Alpha virt. eigenvalues --    0.87841   0.88167   0.89166   0.91520   0.93335
 Alpha virt. eigenvalues --    0.94535   0.96298   0.98559   0.99353   1.00142
 Alpha virt. eigenvalues --    1.00980   1.01775   1.02815   1.03822   1.04429
 Alpha virt. eigenvalues --    1.06038   1.06432   1.07593   1.08191   1.09801
 Alpha virt. eigenvalues --    1.11171   1.11542   1.13695   1.15301   1.15826
 Alpha virt. eigenvalues --    1.16132   1.18663   1.19827   1.21192   1.22792
 Alpha virt. eigenvalues --    1.24424   1.25064   1.27605   1.28021   1.28609
 Alpha virt. eigenvalues --    1.28913   1.31578   1.32248   1.32978   1.34200
 Alpha virt. eigenvalues --    1.34601   1.36592   1.38164   1.39189   1.40025
 Alpha virt. eigenvalues --    1.41334   1.42094   1.45364   1.45740   1.46746
 Alpha virt. eigenvalues --    1.47722   1.49248   1.50527   1.51513   1.52629
 Alpha virt. eigenvalues --    1.53900   1.54938   1.56149   1.57574   1.58342
 Alpha virt. eigenvalues --    1.59225   1.60458   1.62516   1.62655   1.63638
 Alpha virt. eigenvalues --    1.64141   1.64638   1.64963   1.65497   1.66247
 Alpha virt. eigenvalues --    1.67469   1.69224   1.69805   1.70193   1.70847
 Alpha virt. eigenvalues --    1.71315   1.72341   1.73063   1.73660   1.75758
 Alpha virt. eigenvalues --    1.76131   1.76695   1.77101   1.77921   1.78738
 Alpha virt. eigenvalues --    1.79662   1.80919   1.81152   1.83594   1.84611
 Alpha virt. eigenvalues --    1.84816   1.85462   1.85729   1.86528   1.88177
 Alpha virt. eigenvalues --    1.89255   1.90077   1.91547   1.93220   1.93797
 Alpha virt. eigenvalues --    1.94418   1.95473   1.97458   1.98221   1.99259
 Alpha virt. eigenvalues --    2.00142   2.00876   2.01778   2.02422   2.02668
 Alpha virt. eigenvalues --    2.05362   2.06836   2.07612   2.10124   2.12086
 Alpha virt. eigenvalues --    2.13825   2.15536   2.17620   2.19064   2.19555
 Alpha virt. eigenvalues --    2.21395   2.21488   2.23116   2.23645   2.24683
 Alpha virt. eigenvalues --    2.25023   2.25971   2.26571   2.31108   2.32313
 Alpha virt. eigenvalues --    2.34486   2.36531   2.37670   2.39158   2.41201
 Alpha virt. eigenvalues --    2.43103   2.48745   2.49384   2.50279   2.52345
 Alpha virt. eigenvalues --    2.53098   2.53881   2.55991   2.56467   2.59861
 Alpha virt. eigenvalues --    2.60285   2.62830   2.64276   2.69094   2.71557
 Alpha virt. eigenvalues --    2.77527   2.79430   2.82735   2.89732   2.89867
 Alpha virt. eigenvalues --    2.96200   3.01724   3.01896   3.04103   3.08434
 Alpha virt. eigenvalues --    3.17193   3.17325   3.20417   3.23953   3.24675
 Alpha virt. eigenvalues --    3.28142   3.30376   3.37468   3.44596   3.46472
 Alpha virt. eigenvalues --    3.47825   3.55115   3.58068
          Condensed to atoms (all electrons):
               1          2          3          4          5          6
     1  C    4.845943   0.405163  -0.010982   0.411319  -0.046395   0.010665
     2  C    0.405163   4.806305   0.579141  -0.035309   0.411072  -0.045373
     3  C   -0.010982   0.579141   4.833627   0.006723  -0.040130   0.413643
     4  H    0.411319  -0.035309   0.006723   0.603654  -0.003304  -0.000079
     5  H   -0.046395   0.411072  -0.040130  -0.003304   0.643873  -0.006068
     6  H    0.010665  -0.045373   0.413643  -0.000079  -0.006068   0.649451
     7  C   -0.201392  -0.012036   0.399993   0.002077   0.009003  -0.042243
     8  O    0.376038  -0.045621  -0.063598  -0.014087   0.003178   0.003117
     9  C    0.218841  -0.057323  -0.050685  -0.037416   0.001661  -0.000534
    10  H   -0.018016  -0.002350  -0.004228   0.000900   0.002490  -0.000119
    11  C   -0.058597  -0.052806  -0.054282   0.002883  -0.000049   0.001525
    12  H    0.004858  -0.005598  -0.003773  -0.000216  -0.000142   0.002912
    13  C   -0.001224   0.003486  -0.000685   0.000183   0.000003  -0.000072
    14  C   -0.027710  -0.000015   0.002903   0.006165  -0.000055   0.000024
    15  N   -0.002896  -0.000230  -0.000172   0.000638  -0.000000  -0.000003
    16  H    0.000021   0.000040   0.000067  -0.000142  -0.000000   0.000000
    17  O   -0.006022   0.000126  -0.000035   0.010258   0.000002  -0.000000
    18  O    0.000073   0.000004  -0.000199   0.000011   0.000000  -0.000022
    19  C    0.003832   0.008018  -0.065652  -0.000361  -0.000171  -0.005689
    20  H    0.000147  -0.000153  -0.005405   0.000013  -0.000008   0.001379
    21  H    0.000271  -0.000146   0.008409   0.000002   0.000005  -0.000059
    22  S    0.000253  -0.000155   0.001801   0.000031   0.000001   0.001074
    23  C    0.000000   0.000002  -0.000021  -0.000000  -0.000000  -0.000014
    24  H    0.000001  -0.000000  -0.000016   0.000000   0.000000  -0.000004
    25  H   -0.000000  -0.000000   0.000018   0.000000   0.000000   0.000003
    26  C    0.000000  -0.000000  -0.000001   0.000000   0.000000   0.000000
    27  O   -0.000000  -0.000000   0.000000  -0.000000  -0.000000  -0.000000
    28  C   -0.000000   0.000000  -0.000000  -0.000000  -0.000000  -0.000000
    29  C    0.000000  -0.000000   0.000000   0.000000   0.000000   0.000000
    30  C   -0.000000  -0.000000   0.000000  -0.000000   0.000000   0.000000
    31  H    0.000000  -0.000000   0.000000   0.000000   0.000000   0.000000
    32  H   -0.000000  -0.000000   0.000000  -0.000000  -0.000000  -0.000000
    33  H    0.000000   0.000000  -0.000000  -0.000000  -0.000000   0.000000
               7          8          9         10         11         12
     1  C   -0.201392   0.376038   0.218841  -0.018016  -0.058597   0.004858
     2  C   -0.012036  -0.045621  -0.057323  -0.002350  -0.052806  -0.005598
     3  C    0.399993  -0.063598  -0.050685  -0.004228  -0.054282  -0.003773
     4  H    0.002077  -0.014087  -0.037416   0.000900   0.002883  -0.000216
     5  H    0.009003   0.003178   0.001661   0.002490  -0.000049  -0.000142
     6  H   -0.042243   0.003117  -0.000534  -0.000119   0.001525   0.002912
     7  C    5.105762   0.350426  -0.049614   0.002998   0.227548  -0.017686
     8  O    0.350426   7.785793  -0.088774   0.002095  -0.091535   0.002757
     9  C   -0.049614  -0.088774   5.357484   0.389825   0.366717  -0.019843
    10  H    0.002998   0.002095   0.389825   0.631029  -0.018459  -0.006063
    11  C    0.227548  -0.091535   0.366717  -0.018459   5.289171   0.388858
    12  H   -0.017686   0.002757  -0.019843  -0.006063   0.388858   0.639043
    13  C   -0.027870   0.001975  -0.045799   0.004962   0.293232  -0.020765
    14  C   -0.000934   0.002562   0.272643  -0.020587  -0.041642   0.005122
    15  N   -0.002065  -0.004046  -0.106095   0.003488  -0.095840   0.003382
    16  H    0.000282   0.000095   0.010180  -0.000120   0.009570  -0.000123
    17  O    0.000042  -0.000070  -0.081094   0.000930   0.004260  -0.000055
    18  O   -0.012341   0.000213   0.003863  -0.000060  -0.074235   0.000875
    19  C    0.442329  -0.035722   0.003378  -0.000181  -0.051108  -0.000698
    20  H   -0.006183   0.002609   0.000331  -0.000007  -0.000488   0.002147
    21  H    0.007514   0.003360  -0.000919  -0.000014  -0.007063   0.000078
    22  S   -0.062907   0.002823   0.000064   0.000002   0.004141   0.000015
    23  C    0.002165   0.000038   0.000001  -0.000000  -0.000022   0.000000
    24  H    0.000044  -0.000000   0.000000   0.000000   0.000004   0.000001
    25  H    0.000219  -0.000003  -0.000000  -0.000000  -0.000001  -0.000001
    26  C   -0.000085   0.000000   0.000000   0.000000   0.000000  -0.000000
    27  O    0.000000   0.000000   0.000000  -0.000000  -0.000000  -0.000000
    28  C    0.000002   0.000000   0.000000  -0.000000  -0.000000   0.000000
    29  C   -0.000000   0.000000  -0.000000   0.000000   0.000000  -0.000000
    30  C   -0.000000  -0.000000  -0.000000   0.000000  -0.000000  -0.000000
    31  H   -0.000000   0.000000   0.000000   0.000000   0.000000  -0.000000
    32  H    0.000000   0.000000   0.000000  -0.000000  -0.000000   0.000000
    33  H    0.000000   0.000000   0.000000  -0.000000  -0.000000   0.000000
              13         14         15         16         17         18
     1  C   -0.001224  -0.027710  -0.002896   0.000021  -0.006022   0.000073
     2  C    0.003486  -0.000015  -0.000230   0.000040   0.000126   0.000004
     3  C   -0.000685   0.002903  -0.000172   0.000067  -0.000035  -0.000199
     4  H    0.000183   0.006165   0.000638  -0.000142   0.010258   0.000011
     5  H    0.000003  -0.000055  -0.000000  -0.000000   0.000002   0.000000
     6  H   -0.000072   0.000024  -0.000003   0.000000  -0.000000  -0.000022
     7  C   -0.027870  -0.000934  -0.002065   0.000282   0.000042  -0.012341
     8  O    0.001975   0.002562  -0.004046   0.000095  -0.000070   0.000213
     9  C   -0.045799   0.272643  -0.106095   0.010180  -0.081094   0.003863
    10  H    0.004962  -0.020587   0.003488  -0.000120   0.000930  -0.000060
    11  C    0.293232  -0.041642  -0.095840   0.009570   0.004260  -0.074235
    12  H   -0.020765   0.005122   0.003382  -0.000123  -0.000055   0.000875
    13  C    4.532481  -0.054202   0.370236  -0.019135  -0.000228   0.752510
    14  C   -0.054202   4.487514   0.357445  -0.017241   0.805616   0.000073
    15  N    0.370236   0.357445   6.419855   0.347061  -0.073817  -0.071382
    16  H   -0.019135  -0.017241   0.347061   0.542059   0.003373   0.003446
    17  O   -0.000228   0.805616  -0.073817   0.003373   7.578289  -0.000010
    18  O    0.752510   0.000073  -0.071382   0.003446  -0.000010   7.655879
    19  C   -0.016872   0.000264   0.001772  -0.000326   0.000001  -0.022799
    20  H   -0.000834  -0.000016   0.000153  -0.000009   0.000000   0.001630
    21  H   -0.010766   0.000201  -0.003200   0.000516   0.000001   0.018758
    22  S    0.000744  -0.000032  -0.000033  -0.000011   0.000000   0.001258
    23  C    0.000016   0.000000  -0.000000  -0.000000  -0.000000  -0.000010
    24  H   -0.000008  -0.000000  -0.000000   0.000000   0.000000   0.000000
    25  H   -0.000012   0.000000   0.000000   0.000000  -0.000000  -0.000083
    26  C    0.000000  -0.000000  -0.000000  -0.000000   0.000000   0.000000
    27  O    0.000000   0.000000  -0.000000   0.000000  -0.000000   0.000000
    28  C   -0.000000   0.000000   0.000000  -0.000000  -0.000000   0.000000
    29  C    0.000000  -0.000000  -0.000000   0.000000   0.000000  -0.000000
    30  C    0.000000   0.000000  -0.000000   0.000000  -0.000000  -0.000000
    31  H   -0.000000  -0.000000  -0.000000  -0.000000   0.000000  -0.000000
    32  H   -0.000000   0.000000   0.000000  -0.000000  -0.000000  -0.000000
    33  H   -0.000000   0.000000   0.000000  -0.000000  -0.000000   0.000000
              19         20         21         22         23         24
     1  C    0.003832   0.000147   0.000271   0.000253   0.000000   0.000001
     2  C    0.008018  -0.000153  -0.000146  -0.000155   0.000002  -0.000000
     3  C   -0.065652  -0.005405   0.008409   0.001801  -0.000021  -0.000016
     4  H   -0.000361   0.000013   0.000002   0.000031  -0.000000   0.000000
     5  H   -0.000171  -0.000008   0.000005   0.000001  -0.000000   0.000000
     6  H   -0.005689   0.001379  -0.000059   0.001074  -0.000014  -0.000004
     7  C    0.442329  -0.006183   0.007514  -0.062907   0.002165   0.000044
     8  O   -0.035722   0.002609   0.003360   0.002823   0.000038  -0.000000
     9  C    0.003378   0.000331  -0.000919   0.000064   0.000001   0.000000
    10  H   -0.000181  -0.000007  -0.000014   0.000002  -0.000000   0.000000
    11  C   -0.051108  -0.000488  -0.007063   0.004141  -0.000022   0.000004
    12  H   -0.000698   0.002147   0.000078   0.000015   0.000000   0.000001
    13  C   -0.016872  -0.000834  -0.010766   0.000744   0.000016  -0.000008
    14  C    0.000264  -0.000016   0.000201  -0.000032   0.000000  -0.000000
    15  N    0.001772   0.000153  -0.003200  -0.000033  -0.000000  -0.000000
    16  H   -0.000326  -0.000009   0.000516  -0.000011  -0.000000   0.000000
    17  O    0.000001   0.000000   0.000001   0.000000  -0.000000   0.000000
    18  O   -0.022799   0.001630   0.018758   0.001258  -0.000010   0.000000
    19  C    4.784469   0.367265   0.360006   0.258115  -0.017717  -0.003449
    20  H    0.367265   0.644923  -0.025124  -0.040050  -0.003359   0.005673
    21  H    0.360006  -0.025124   0.583960  -0.045055  -0.003171  -0.000584
    22  S    0.258115  -0.040050  -0.045055  15.763415   0.259272  -0.044563
    23  C   -0.017717  -0.003359  -0.003171   0.259272   4.793915   0.407538
    24  H   -0.003449   0.005673  -0.000584  -0.044563   0.407538   0.619619
    25  H   -0.001519  -0.001287   0.004050  -0.039327   0.386228  -0.030010
    26  C    0.002565   0.000037  -0.000107  -0.046791   0.346733  -0.024156
    27  O   -0.000022  -0.000000  -0.000009   0.002262  -0.047016   0.000735
    28  C   -0.000179  -0.000008  -0.000001   0.004196  -0.077416  -0.015671
    29  C    0.000002   0.000000   0.000000  -0.000276   0.007246   0.000277
    30  C    0.000002  -0.000001   0.000000  -0.000107   0.003961   0.000140
    31  H    0.000000   0.000002   0.000000  -0.000242   0.002864   0.001251
    32  H   -0.000000   0.000000  -0.000000   0.000018  -0.000393   0.000016
    33  H   -0.000000  -0.000000   0.000000   0.000008  -0.000205  -0.000055
              25         26         27         28         29         30
     1  C   -0.000000   0.000000  -0.000000  -0.000000   0.000000  -0.000000
     2  C   -0.000000  -0.000000  -0.000000   0.000000  -0.000000  -0.000000
     3  C    0.000018  -0.000001   0.000000  -0.000000   0.000000   0.000000
     4  H    0.000000   0.000000  -0.000000  -0.000000   0.000000  -0.000000
     5  H    0.000000   0.000000  -0.000000  -0.000000   0.000000   0.000000
     6  H    0.000003   0.000000  -0.000000  -0.000000   0.000000   0.000000
     7  C    0.000219  -0.000085   0.000000   0.000002  -0.000000  -0.000000
     8  O   -0.000003   0.000000   0.000000   0.000000   0.000000  -0.000000
     9  C   -0.000000   0.000000   0.000000   0.000000  -0.000000  -0.000000
    10  H   -0.000000   0.000000  -0.000000  -0.000000   0.000000   0.000000
    11  C   -0.000001   0.000000  -0.000000  -0.000000   0.000000  -0.000000
    12  H   -0.000001  -0.000000  -0.000000   0.000000  -0.000000  -0.000000
    13  C   -0.000012   0.000000   0.000000  -0.000000   0.000000   0.000000
    14  C    0.000000  -0.000000   0.000000   0.000000  -0.000000   0.000000
    15  N    0.000000  -0.000000  -0.000000   0.000000  -0.000000  -0.000000
    16  H    0.000000  -0.000000   0.000000  -0.000000   0.000000   0.000000
    17  O   -0.000000   0.000000  -0.000000  -0.000000   0.000000  -0.000000
    18  O   -0.000083   0.000000   0.000000   0.000000  -0.000000  -0.000000
    19  C   -0.001519   0.002565  -0.000022  -0.000179   0.000002   0.000002
    20  H   -0.001287   0.000037  -0.000000  -0.000008   0.000000  -0.000001
    21  H    0.004050  -0.000107  -0.000009  -0.000001   0.000000   0.000000
    22  S   -0.039327  -0.046791   0.002262   0.004196  -0.000276  -0.000107
    23  C    0.386228   0.346733  -0.047016  -0.077416   0.007246   0.003961
    24  H   -0.030010  -0.024156   0.000735  -0.015671   0.000277   0.000140
    25  H    0.614917  -0.020752   0.001011   0.003856   0.000404   0.000252
    26  C   -0.020752   5.156757   0.317925   0.467633  -0.109493  -0.080742
    27  O    0.001011   0.317925   7.741435  -0.065186   0.345791  -0.060699
    28  C    0.003856   0.467633  -0.065186   4.989215  -0.075452   0.512044
    29  C    0.000404  -0.109493   0.345791  -0.075452   4.901337   0.507076
    30  C    0.000252  -0.080742  -0.060699   0.512044   0.507076   4.910542
    31  H   -0.000200  -0.029535   0.002757   0.365584   0.006441  -0.017127
    32  H   -0.000035   0.004969  -0.024745   0.003411   0.378249  -0.027374
    33  H    0.000017   0.006290   0.002897  -0.025345  -0.024717   0.368834
              31         32         33
     1  C    0.000000  -0.000000   0.000000
     2  C   -0.000000  -0.000000   0.000000
     3  C    0.000000   0.000000  -0.000000
     4  H    0.000000  -0.000000  -0.000000
     5  H    0.000000  -0.000000  -0.000000
     6  H    0.000000  -0.000000   0.000000
     7  C   -0.000000   0.000000   0.000000
     8  O    0.000000   0.000000   0.000000
     9  C    0.000000   0.000000   0.000000
    10  H    0.000000  -0.000000  -0.000000
    11  C    0.000000  -0.000000  -0.000000
    12  H   -0.000000   0.000000   0.000000
    13  C   -0.000000  -0.000000  -0.000000
    14  C   -0.000000   0.000000   0.000000
    15  N   -0.000000   0.000000   0.000000
    16  H   -0.000000  -0.000000  -0.000000
    17  O    0.000000  -0.000000  -0.000000
    18  O   -0.000000  -0.000000   0.000000
    19  C    0.000000  -0.000000  -0.000000
    20  H    0.000002   0.000000  -0.000000
    21  H    0.000000  -0.000000   0.000000
    22  S   -0.000242   0.000018   0.000008
    23  C    0.002864  -0.000393  -0.000205
    24  H    0.001251   0.000016  -0.000055
    25  H   -0.000200  -0.000035   0.000017
    26  C   -0.029535   0.004969   0.006290
    27  O    0.002757  -0.024745   0.002897
    28  C    0.365584   0.003411  -0.025345
    29  C    0.006441   0.378249  -0.024717
    30  C   -0.017127  -0.027374   0.368834
    31  H    0.586225  -0.000625  -0.006684
    32  H   -0.000625   0.568585  -0.000911
    33  H   -0.006684  -0.000911   0.597683
 Mulliken charges:
               1
     1  C    0.095809
     2  C    0.043758
     3  C    0.053537
     4  H    0.046056
     5  H    0.025035
     6  H    0.016487
     7  C   -0.115051
     8  O   -0.193623
     9  C   -0.086893
    10  H    0.031486
    11  C   -0.041783
    12  H    0.024914
    13  C    0.238644
    14  C    0.221902
    15  N   -0.144253
    16  H    0.120395
    17  O   -0.241569
    18  O   -0.257453
    19  C   -0.009550
    20  H    0.056621
    21  H    0.109086
    22  S   -0.019944
    23  C   -0.060638
    24  H    0.083216
    25  H    0.082254
    26  C    0.008752
    27  O   -0.217136
    28  C   -0.086683
    29  C    0.063113
    30  C   -0.116801
    31  H    0.089289
    32  H    0.098834
    33  H    0.082189
 Sum of Mulliken charges =  -0.00000
 Mulliken charges with hydrogens summed into heavy atoms:
               1
     1  C    0.141865
     2  C    0.068793
     3  C    0.070024
     7  C   -0.115051
     8  O   -0.193623
     9  C   -0.055407
    11  C   -0.016868
    13  C    0.238644
    14  C    0.221902
    15  N   -0.023857
    17  O   -0.241569
    18  O   -0.257453
    19  C    0.156157
    22  S   -0.019944
    23  C    0.104832
    26  C    0.008752
    27  O   -0.217136
    28  C    0.002606
    29  C    0.161947
    30  C   -0.034612
 APT charges:
               1
     1  C   -0.564719
     2  C   -0.211240
     3  C   -0.647986
     4  H    0.651674
     5  H    0.889096
     6  H    0.441897
     7  C   -0.216203
     8  O   -0.152237
     9  C   -0.689649
    10  H    0.766093
    11  C   -0.391555
    12  H    0.315386
    13  C   -0.363642
    14  C   -1.504574
    15  N   -0.293585
    16  H    0.560375
    17  O    1.383883
    18  O   -0.171561
    19  C   -0.362478
    20  H    0.342424
    21  H    0.216928
    22  S   -0.029613
    23  C   -0.342995
    24  H    0.376810
    25  H    0.153757
    26  C   -0.334588
    27  O   -0.564990
    28  C   -1.069338
    29  C   -0.646538
    30  C    0.143149
    31  H    0.572185
    32  H    0.884869
    33  H    0.858964
 Sum of APT charges =  -0.00000
 APT charges with hydrogens summed into heavy atoms:
               1
     1  C    0.086955
     2  C    0.677857
     3  C   -0.206090
     7  C   -0.216203
     8  O   -0.152237
     9  C    0.076444
    11  C   -0.076169
    13  C   -0.363642
    14  C   -1.504574
    15  N    0.266791
    17  O    1.383883
    18  O   -0.171561
    19  C    0.196874
    22  S   -0.029613
    23  C    0.187572
    26  C   -0.334588
    27  O   -0.564990
    28  C   -0.497153
    29  C    0.238332
    30  C    1.002114
 Electronic spatial extent (au):  <R**2>=           7998.5901
 Charge=             -0.0000 electrons
 Dipole moment (field-independent basis, Debye):
    X=             -1.0853    Y=              2.9743    Z=              1.0876  Tot=              3.3477
 Quadrupole moment (field-independent basis, Debye-Ang):
   XX=           -114.4422   YY=           -118.0154   ZZ=           -125.2504
   XY=              7.5628   XZ=             11.4060   YZ=              4.0456
 Traceless Quadrupole moment (field-independent basis, Debye-Ang):
   XX=              4.7938   YY=              1.2206   ZZ=             -6.0144
   XY=              7.5628   XZ=             11.4060   YZ=              4.0456
 Octapole moment (field-independent basis, Debye-Ang**2):
  XXX=           -152.8452  YYY=             -9.3774  ZZZ=             -6.8358  XYY=             35.2616
  XXY=             62.7813  XXZ=            -25.7175  XZZ=              0.1695  YZZ=              7.7310
  YYZ=            -12.5208  XYZ=             -3.2785
 Hexadecapole moment (field-independent basis, Debye-Ang**3):
 XXXX=          -8624.1835 YYYY=          -1113.4254 ZZZZ=           -579.2059 XXXY=             53.7596
 XXXZ=            644.0213 YYYX=            -33.5825 YYYZ=             45.5868 ZZZX=             23.9599
 ZZZY=             11.1036 XXYY=          -1632.6494 XXZZ=          -1671.0821 YYZZ=           -306.3756
 XXYZ=            -56.6076 YYXZ=             -7.7040 ZZXY=             41.0301
 N-N= 1.653317561373D+03 E-N=-6.344605611007D+03  KE= 1.288440420688D+03
  Exact polarizability:   0.000   0.000   0.000   0.000   0.000   0.000
 Approx polarizability: 288.847  20.042 243.183 -41.286   8.124 213.147
 Calling FoFJK, ICntrl=    100147 FMM=F ISym2X=0 I1Cent= 0 IOpClX= 0 NMat=1 NMatS=1 NMatT=0.
 ***** Axes restored to original set *****
 -------------------------------------------------------------------
 Center     Atomic                   Forces (Hartrees/Bohr)
 Number     Number              X              Y              Z
 -------------------------------------------------------------------
      1        6           0.018632358   -0.025387174    0.008301010
      2        6          -0.021668781    0.019239173    0.015231420
      3        6           0.010568528    0.029562652   -0.011409334
      4        1          -0.002937703    0.003952610   -0.002454753
      5        1          -0.000215525    0.000393925    0.000283117
      6        1          -0.000284875    0.000049148    0.000107554
      7        6          -0.007442891   -0.043732374    0.016537619
      8        8          -0.035349619    0.015507856   -0.039708775
      9        6           0.020115080    0.015847798   -0.026889472
     10        1           0.004330040   -0.006958164    0.004723465
     11        6          -0.029357248   -0.012359335    0.029035294
     12        1           0.007159928   -0.006870325    0.002956102
     13        6           0.027375800   -0.007023545    0.006274449
     14        6           0.008558592   -0.006948936    0.004820318
     15        7          -0.001777781    0.000714308    0.002280939
     16        1          -0.000305967   -0.000165320   -0.000573147
     17        8          -0.001729753    0.000716364   -0.000261074
     18        8           0.010234763   -0.015164840    0.004833227
     19        6           0.006897918    0.022969470   -0.014280482
     20        1           0.001376250    0.002767013    0.021846921
     21        1          -0.005916101   -0.006335525   -0.002233263
     22       16           0.002552555    0.037096045   -0.036266480
     23        6           0.018907995    0.014140179   -0.015338299
     24        1          -0.004039287    0.002537198    0.016503977
     25        1          -0.001471798   -0.019290256   -0.004023341
     26        6          -0.053144869   -0.052860194    0.068513632
     27        8          -0.033621247    0.015256440    0.039566405
     28        6          -0.041097373   -0.049672742   -0.085740503
     29        6           0.024640856    0.110729595    0.006120848
     30        6           0.080281105    0.007033786   -0.093269695
     31        1           0.008102484    0.000633915    0.036384353
     32        1          -0.000958689   -0.027966219    0.018125443
     33        1          -0.008414746   -0.018412525    0.030002524
 -------------------------------------------------------------------
 Cartesian Forces:  Max     0.110729595 RMS     0.027625991
 FormGI is forming the generalized inverse of G from B-inverse, IUseBI=4.

 GradGradGradGradGradGradGradGradGradGradGradGradGradGradGradGradGradGrad
 Berny optimization.
 Internal  Forces:  Max     0.085550048 RMS     0.013476845
 Search for a saddle point.
 Step number   1 out of a maximum of  198
 All quantities printed in internal units (Hartrees-Bohrs-Radians)
 Swapping is turned off.
 Second derivative matrix not updated -- analytic derivatives used.
 ITU=  0
     Eigenvalues ---   -0.03039  -0.00639  -0.00092   0.00171   0.00323
     Eigenvalues ---    0.00374   0.00562   0.00810   0.00957   0.01009
     Eigenvalues ---    0.01178   0.01243   0.01272   0.01703   0.01967
     Eigenvalues ---    0.02117   0.02310   0.02411   0.02746   0.02859
     Eigenvalues ---    0.03028   0.03302   0.03322   0.03594   0.03666
     Eigenvalues ---    0.04153   0.04559   0.04724   0.04826   0.05062
     Eigenvalues ---    0.05095   0.05435   0.05477   0.05766   0.06052
     Eigenvalues ---    0.06530   0.06861   0.07416   0.08147   0.08353
     Eigenvalues ---    0.08793   0.09014   0.09551   0.09821   0.10365
     Eigenvalues ---    0.11135   0.11531   0.11673   0.12390   0.12658
     Eigenvalues ---    0.13363   0.13696   0.14449   0.15987   0.17496
     Eigenvalues ---    0.18204   0.19380   0.19560   0.20943   0.22120
     Eigenvalues ---    0.22454   0.23454   0.24426   0.24852   0.25520
     Eigenvalues ---    0.25782   0.26793   0.27658   0.28909   0.30176
     Eigenvalues ---    0.31445   0.31471   0.31913   0.32204   0.32429
     Eigenvalues ---    0.33668   0.35155   0.36657   0.37023   0.37068
     Eigenvalues ---    0.37248   0.37736   0.37927   0.38480   0.39313
     Eigenvalues ---    0.40328   0.40591   0.40885   0.42349   0.47644
     Eigenvalues ---    0.50026   0.85106   0.91598
 Eigenvectors required to have negative eigenvalues:
                          R4        R10       D7        D29       D55
   1                    0.51603   0.48352   0.18996  -0.18550  -0.15992
                          D57       D3        D62       D70       D61
   1                    0.15777  -0.13217   0.12904  -0.12662   0.12450
 RFO step:  Lambda0=6.988949033D-03 Lambda=-1.36619032D-01.
 Linear search not attempted -- option 19 set.
 Maximum step size (   0.300) exceeded in Quadratic search.
    -- Step size scaled by   0.437
 Iteration  1 RMS(Cart)=  0.14637256 RMS(Int)=  0.00918083
 Iteration  2 RMS(Cart)=  0.01660804 RMS(Int)=  0.00033642
 Iteration  3 RMS(Cart)=  0.00011855 RMS(Int)=  0.00032917
 Iteration  4 RMS(Cart)=  0.00000005 RMS(Int)=  0.00032917
 Variable       Old X    -DE/DX   Delta X   Delta X   Delta X     New X
                                 (Linear)    (Quad)   (Total)
    R1        2.68310   0.02384   0.00000  -0.00031  -0.00033   2.68277
    R2        2.05565   0.00042   0.00000  -0.00051  -0.00051   2.05514
    R3        2.56853   0.00938   0.00000  -0.00344  -0.00354   2.56500
    R4        3.57102   0.01358   0.00000   0.11879   0.11883   3.68985
    R5        2.60045  -0.01474   0.00000  -0.00177  -0.00185   2.59860
    R6        2.05269   0.00020   0.00000  -0.00005  -0.00005   2.05264
    R7        2.05269   0.00020   0.00000   0.00003   0.00003   2.05271
    R8        2.68310   0.02293   0.00000   0.00120   0.00118   2.68428
    R9        2.56853   0.01296   0.00000  -0.00012  -0.00020   2.56833
   R10        3.60130   0.02130   0.00000   0.13396   0.13397   3.73528
   R11        2.91018  -0.02259   0.00000  -0.03084  -0.03086   2.87932
   R12        2.05366   0.00008   0.00000  -0.00095  -0.00095   2.05271
   R13        2.65318   0.02595   0.00000  -0.00161  -0.00138   2.65180
   R14        2.83448   0.00113   0.00000  -0.00257  -0.00257   2.83192
   R15        2.05366   0.00018   0.00000  -0.00114  -0.00114   2.05252
   R16        2.83447  -0.00455   0.00000  -0.00872  -0.00867   2.82581
   R17        2.63185   0.00120   0.00000  -0.00114  -0.00117   2.63068
   R18        2.28006   0.00264   0.00000   0.00364   0.00365   2.28370
   R19        2.63185   0.00336   0.00000   0.00143   0.00139   2.63324
   R20        2.28006  -0.00097   0.00000   0.00005   0.00005   2.28011
   R21        1.91509   0.00049   0.00000  -0.00005  -0.00005   1.91504
   R22        3.38908   0.02810   0.00000   0.05071   0.05073   3.43980
   R23        2.02201   0.02146   0.00000   0.01674   0.01674   2.03875
   R24        2.02201   0.02563   0.00000   0.02011   0.02009   2.04209
   R25        3.36371   0.02257   0.00000   0.02358   0.02358   3.38729
   R26        3.36371   0.02285   0.00000   0.02626   0.02626   3.38998
   R27        2.02201   0.01709   0.00000   0.01397   0.01397   2.03597
   R28        2.02201   0.01925   0.00000   0.01547   0.01547   2.03748
   R29        2.91018   0.00422   0.00000  -0.00646  -0.00646   2.90372
   R30        2.70301  -0.03870   0.00000  -0.03389  -0.03405   2.66896
   R31        2.88176  -0.04357   0.00000  -0.07221  -0.07225   2.80951
   R32        2.70301  -0.05565   0.00000  -0.06517  -0.06524   2.63777
   R33        2.87722  -0.06792   0.00000  -0.06821  -0.06807   2.80915
   R34        2.11189  -0.01220   0.00000  -0.01444  -0.01444   2.09745
   R35        2.88176  -0.08555   0.00000  -0.12084  -0.12073   2.76103
   R36        2.11700  -0.01450   0.00000  -0.01739  -0.01739   2.09961
   R37        2.11189  -0.01426   0.00000  -0.01604  -0.01604   2.09585
    A1        2.25829  -0.00222   0.00000   0.00732   0.00717   2.26546
    A2        1.89379  -0.00088   0.00000   0.00294   0.00292   1.89671
    A3        1.69977   0.00347   0.00000  -0.00549  -0.00550   1.69427
    A4        2.01960  -0.00282   0.00000   0.00029   0.00020   2.01979
    A5        1.82763  -0.00082   0.00000  -0.01351  -0.01340   1.81423
    A6        1.59444   0.01079   0.00000  -0.00078  -0.00085   1.59359
    A7        1.84491   0.00158   0.00000   0.00016   0.00011   1.84502
    A8        2.19014  -0.00042   0.00000   0.00017   0.00021   2.19035
    A9        2.23933  -0.00128   0.00000  -0.00003  -0.00002   2.23931
   A10        2.23933  -0.00062   0.00000  -0.00033  -0.00032   2.23902
   A11        1.84491   0.00127   0.00000   0.00300   0.00295   1.84786
   A12        2.19014  -0.00062   0.00000  -0.00219  -0.00217   2.18797
   A13        1.89379  -0.00100   0.00000  -0.00009  -0.00013   1.89366
   A14        1.68695   0.00236   0.00000  -0.00766  -0.00766   1.67928
   A15        2.25831  -0.00359   0.00000   0.00242   0.00225   2.26056
   A16        1.56033   0.00847   0.00000  -0.00560  -0.00565   1.55468
   A17        2.01959   0.00016   0.00000   0.00805   0.00801   2.02760
   A18        1.86540  -0.00042   0.00000  -0.00704  -0.00695   1.85846
   A19        1.81831  -0.00781   0.00000   0.00599   0.00585   1.82416
   A20        1.75480   0.00160   0.00000  -0.00747  -0.00749   1.74731
   A21        1.74605  -0.00262   0.00000  -0.00404  -0.00393   1.74212
   A22        1.67728   0.00760   0.00000  -0.00845  -0.00848   1.66880
   A23        2.20311  -0.00053   0.00000   0.00539   0.00531   2.20841
   A24        2.07040  -0.00062   0.00000   0.00377   0.00366   2.07406
   A25        1.88060  -0.00206   0.00000   0.00136   0.00132   1.88193
   A26        1.78833  -0.00523   0.00000  -0.00773  -0.00760   1.78073
   A27        1.72748   0.00218   0.00000  -0.00788  -0.00786   1.71962
   A28        1.66322   0.00879   0.00000  -0.00759  -0.00768   1.65554
[...]
 059618,0.00102739,-0.00081818,0.00009308,-0.00135697,0.00035448,-0.000
 88082,-0.34266400,-0.15023711,0.01062215,-0.02406010,-0.04760633,0.011
 11246,0.62216880,-0.00007275,-0.00009568,0.00006608,-0.00002001,0.0000
 3601,0.00003932,0.00005391,0.00000369,-0.00002879,-0.00000475,0.000005
 25,-0.00000216,0.00001408,0.00000096,-0.00000200,0.00001800,-0.0000024
 1,0.00001687,-0.00010080,-0.00018057,-0.00004962,0.00013658,0.00012234
 ,0.00005680,0.00002710,-0.00000883,-0.00001090,0.00000616,-0.00000452,
 0.00000242,0.00000915,-0.00000477,0.00001965,0.00000563,-0.00000595,0.
 00000238,0.00000475,0.00005930,-0.00004143,-0.00000827,0.00005569,-0.0
 0000829,-0.00000316,-0.00002175,0.00001183,0.00000201,0.00000833,-0.00
 000363,0.00001032,-0.00002199,-0.00000681,-0.00000786,-0.00003292,0.00
 003681,0.00027019,0.00028943,0.00006456,0.00005730,-0.00001574,0.00001
 786,-0.00004299,-0.00000133,-0.00003268,0.00063428,0.00021310,0.000282
 27,0.00898981,0.01055602,-0.00242035,-0.00102082,0.00081710,-0.0001032
 8,0.00327622,0.00024090,0.00056702,-0.16550250,-0.19145501,0.02035384,
 -0.00202574,-0.07243567,0.03008463,0.11229158,0.79528619,-0.00005664,-
 0.00001709,0.00000834,0.00001815,-0.00000924,0.00002055,-0.00005092,0.
 00001893,0.00001579,0.00000065,-0.00000372,0.00000582,-0.00001057,-0.0
 0000337,0.00000047,0.00000153,0.00000993,-0.00001016,-0.00000317,0.000
 10412,-0.00018697,0.00001627,-0.00005136,-0.00002867,-0.00001901,0.000
 02441,0.00003004,-0.00000719,0.00000658,0.00000019,0.00000176,0.000001
 14,-0.00000440,0.00000183,0.00000689,0.00000066,0.00005372,-0.00008328
 ,-0.00005786,0.00003801,-0.00006676,-0.00007843,-0.00002658,0.00003938
 ,0.00006087,0.00000087,-0.00001199,-0.00000208,-0.00002735,0.00005230,
 0.00006598,-0.00004788,0.00002102,0.00002382,-0.00016065,-0.00027760,-
 0.00013999,-0.00011084,0.00003325,-0.00003038,0.00000509,0.00000736,0.
 00002009,-0.00016770,0.00019797,0.00062584,-0.00603198,-0.00449301,0.0
 0508750,-0.00040917,-0.00011106,-0.00031575,-0.00053928,0.00060877,-0.
 00027227,0.01776857,0.02219525,-0.07353585,-0.00382633,0.02259356,0.00
 469611,0.03295974,-0.22132520,0.20372989,-0.00007191,0.00013811,0.0000
 3138,0.00003918,-0.00003984,0.00020466,-0.00005363,0.00001497,-0.00000
 479,-0.00001136,-0.00001272,0.00001182,-0.00008918,-0.00001770,0.00000
 737,-0.00010960,0.00000441,-0.00010290,0.00036071,0.00045853,-0.000299
 38,-0.00016477,-0.00030572,0.00004056,-0.00003712,-0.00007019,-0.00000
 210,-0.00002456,0.00000714,-0.00000138,-0.00000005,-0.00010237,0.00007
 758,-0.00000180,0.00000916,-0.00000157,0.00015141,0.00002547,-0.000226
 75,0.00004864,0.00008429,-0.00010004,-0.00005600,-0.00003413,0.0001359
 0,0.00000393,-0.00000054,-0.00000203,-0.00001923,-0.00000342,0.0000652
 7,-0.00015015,-0.00002933,0.00014356,-0.00048848,-0.00124520,-0.001624
 37,-0.00060598,0.00024079,0.00015710,0.00016816,-0.00001265,0.00006684
 ,-0.00230563,0.00111628,-0.00100710,0.00516467,-0.00560051,0.00165146,
 0.00023236,-0.00054680,0.00063945,-0.00237746,0.00118230,-0.00037360,-
 0.06533143,0.06047819,-0.02971507,-0.29132689,0.02299652,-0.04014054,0
 .03150199,-0.01345547,0.00656318,0.58972950,-0.00002530,-0.00004060,0.
 00003112,-0.00000334,0.00002631,-0.00000058,0.00004991,0.00000986,-0.0
 0002237,-0.00000484,0.00000286,-0.00000204,-0.00000240,0.00000618,-0.0
 0000107,0.00000294,0.00000141,0.00000376,-0.00003286,-0.00012825,0.000
 01192,0.00006400,0.00007662,0.00002055,0.00001707,-0.00001873,-0.00002
 068,0.00000421,-0.00000417,-0.00000071,0.00000117,-0.00001012,0.000019
 17,-0.00000253,-0.00000479,-0.00000111,-0.00003520,0.00007692,-0.00000
 651,-0.00004073,0.00006329,0.00005302,0.00002917,-0.00002692,-0.000025
 61,-0.00001417,0.00001013,-0.00000512,0.00003318,-0.00004308,-0.000046
 89,0.00002942,-0.00002515,0.00002188,0.00000576,0.00035793,0.00007539,
 0.00006653,0.00002102,-0.00002787,-0.00012314,0.00001677,-0.00006829,-
 0.00002466,-0.00027508,-0.00058716,-0.00021148,-0.00617059,0.00282322,
 0.00134350,0.00003844,0.00055244,-0.00022871,-0.00001791,-0.00026210,0
 .03310761,-0.04863838,0.02708920,-0.01834076,-0.08996573,0.00637535,0.
 04895038,-0.05196703,0.02909542,0.00455252,0.85546730,0.00000383,0.000
 04050,-0.00002107,0.00000508,-0.00001748,0.00002930,-0.00001263,-0.000
 00366,0.00000495,-0.00000214,-0.00000079,0.00000104,-0.00001233,-0.000
 00556,0.00000021,-0.00001220,-0.00000063,-0.00001508,0.00006852,0.0000
 9062,-0.00003461,-0.00004193,-0.00007155,0.00001728,-0.00001013,-0.000
 00632,-0.00000063,-0.00000352,0.00000075,-0.00000067,-0.00000394,-0.00
 001556,0.00000784,-0.00000004,0.00000169,-0.00000007,0.00003013,-0.000
 00063,-0.00003228,0.00001880,0.00000090,-0.00002965,-0.00001756,-0.000
 00381,0.00002366,0.00000605,-0.00000188,0.00000103,-0.00001112,0.00000
 775,0.00002060,-0.00002840,-0.00000212,0.00001854,-0.00003286,-0.00014
 159,-0.00020836,-0.00005557,0.00002057,0.00003636,0.00004743,-0.000015
 61,0.00003736,-0.00020774,-0.00000350,0.00000669,0.00123168,0.00220514
 ,0.00141384,-0.00067658,-0.00013888,0.00009052,-0.00041003,-0.00001975
 ,0.00010059,-0.02316443,0.03086184,0.00065549,-0.02606079,0.01165864,-
 0.07412829,-0.01407537,0.02056613,0.00330131,0.06460949,-0.25471695,0.
 22618375,0.00003050,0.00001955,-0.00004910,0.00001806,-0.00001902,-0.0
 0005691,-0.00006511,-0.00001666,0.00003542,0.00000236,-0.00000309,0.00
 000002,0.00000759,0.00000211,0.00000141,0.00002311,0.00002061,0.000013
 14,0.00020746,0.00006768,0.00002108,-0.00009188,-0.00003128,-0.0000058
 9,-0.00002500,0.00004837,0.00002953,-0.00000262,0.00000708,0.00000084,
 -0.00000243,0.00003620,-0.00003900,0.00000352,0.00000840,-0.00000005,0
 .00001931,-0.00012453,0.00002327,0.00003131,-0.00011616,-0.00004405,-0
 .00001203,0.00005725,0.00001524,0.00000240,-0.00001638,0.00000353,-0.0
 0003114,0.00006215,0.00004954,-0.00002157,0.00005401,-0.00004316,0.000
 00552,0.00013633,-0.00043353,-0.00010602,0.00002813,0.00001365,-0.0000
 7560,-0.00000555,0.00001367,-0.00041938,0.00013116,0.00035854,-0.00205
 663,-0.00349810,0.00103179,0.00001734,0.00024867,-0.00015112,-0.000663
 13,0.00014906,-0.00062436,-0.05974258,-0.02336496,-0.00244624,-0.07568
 392,-0.00914012,-0.00933848,-0.20277806,0.09516726,-0.05404585,-0.1731
 6402,-0.15156510,0.03736239,0.84558457,0.00005506,-0.00003110,-0.00003
 768,-0.00001063,0.00000741,-0.00007513,0.00003727,0.00002078,-0.000008
 01,-0.00000063,0.00000590,-0.00000572,0.00002653,0.00000266,-0.0000059
 0,0.00002530,-0.00001477,0.00003463,-0.00027354,-0.00016882,0.00021081
 ,0.00007660,0.00008200,-0.00006140,0.00001464,0.00001143,-0.00000776,0
 .00000924,-0.00000534,-0.00000241,0.00000510,0.00002275,-0.00001920,-0
 .00000627,-0.00000571,-0.00000060,-0.00008172,0.00003818,0.00010142,-0
 .00003838,-0.00000337,0.00006776,0.00003657,-0.00000632,-0.00007358,-0
 .00000770,0.00000583,-0.00000216,0.00002663,-0.00002058,-0.00004962,0.
 00008686,-0.00000424,-0.00005124,0.00024397,0.00029498,0.00099099,0.00
 032752,-0.00012753,-0.00007828,0.00002428,-0.00000015,-0.00001187,0.00
 156566,-0.00010669,0.00124969,-0.00568602,-0.00006490,0.00085455,0.000
 34147,-0.00015320,-0.00021556,0.00003757,-0.00029748,0.00011162,0.0394
 2649,0.03104326,-0.00319344,-0.05576657,-0.02478521,0.00520674,0.06246
 636,-0.17042362,0.04895048,-0.13583221,-0.36272471,0.08473658,0.145927
 57,0.60321554,0.00000818,0.00003616,-0.00003496,0.00002770,-0.00001682
 ,-0.00001782,-0.00005704,-0.00001511,0.00000965,-0.00000155,-0.0000016
 2,-0.00000035,-0.00000830,-0.00000354,-0.00000219,-0.00000334,0.000003
 94,-0.00000779,0.00004159,0.00007049,0.00006126,-0.00009055,-0.0000463
 5,-0.00001617,-0.00001707,0.00001797,0.00002913,-0.00000577,0.00000297
 ,-0.00000243,0.00001913,-0.00000463,-0.00000993,-0.00000253,0.00000351
 ,-0.00000161,0.00002204,-0.00004102,-0.00002445,0.00002083,-0.00004586
 ,-0.00004721,-0.00001318,0.00001812,0.00003016,0.00000105,-0.00000523,
 -0.00000192,-0.00001649,0.00003112,0.00004052,-0.00001666,0.00000919,0
 .00001051,0.00001400,0.00004941,0.00005753,0.00001085,-0.00001266,-0.0
 0000071,-0.00001473,-0.00000438,-0.00001318,0.00035314,0.00025495,-0.0
 0047943,0.00076452,0.00018115,0.00560301,0.00017923,0.00046102,-0.0000
 8636,-0.00108425,0.00009808,-0.00051285,-0.02383857,-0.00986310,0.0117
 8212,0.00657069,0.01225009,0.01104867,-0.04239546,0.05286992,-0.083399
 58,0.03175236,0.08204124,-0.08995036,0.05336609,-0.14743245,0.17980204
 ,-0.00001141,-0.00002793,0.00001297,-0.00000432,0.00001391,0.00000599,
 0.00003678,0.00001031,-0.00001433,-0.00000484,0.00000053,-0.00000102,0
 .00000228,0.00000063,-0.00000160,-0.00000279,-0.00000732,0.00000333,-0
 .00004683,-0.00005880,0.00000861,0.00004143,0.00005182,0.00000057,0.00
 000812,-0.00000877,-0.00001039,0.00000238,-0.00000257,-0.00000071,-0.0
 0000182,-0.00000098,0.00000772,-0.00000045,-0.00000294,0.00000020,-0.0
 0002429,0.00002863,0.00000659,-0.00002663,0.00002488,0.00003607,0.0000
 2232,-0.00000599,-0.00001732,-0.00001370,0.00000384,-0.00000420,0.0000
 2285,-0.00001921,-0.00002744,0.00002653,-0.00000547,0.00000602,-0.0000
 3967,0.00001059,0.00002914,0.00001377,0.00000247,-0.00001045,-0.000021
 06,0.00000340,-0.00001676,0.00012479,0.00010243,0.00003283,0.00087378,
 0.00006745,0.00012860,-0.00035565,0.00040399,0.00001506,0.00009551,0.0
 0019535,0.00006000,0.00648026,-0.02012388,0.00811967,-0.00300301,-0.00
 640812,0.00056545,-0.05739699,-0.02754461,0.00609305,-0.00588566,0.003
 23803,-0.00249228,0.00960990,0.01924301,-0.00540412,0.04798950,0.00000
 728,-0.00001313,0.00000012,-0.00000666,0.00000652,0.00000107,0.0000263
 6,0.00000520,-0.00001007,-0.00000339,0.00000166,-0.00000214,0.00000409
 ,0.00000073,-0.00000056,-0.00000022,-0.00000587,0.00000501,0.00000636,
 -0.00004642,0.00001733,0.00002452,0.00002788,0.00000358,0.00000538,-0.
 00000808,-0.00001287,0.00000288,-0.00000233,0.,-0.00000471,0.00000125,
 0.00000490,0.00000043,-0.00000254,0.00000060,-0.00001981,0.00002839,0.
 00001650,-0.00001504,0.00002286,0.00002603,0.00001172,-0.00001112,-0.0
 0001904,-0.00000289,0.00000464,-0.00000041,0.00001242,-0.00001761,-0.0
 0002209,0.00001621,-0.00000618,-0.00000556,-0.00005958,0.00004999,-0.0
 0011072,-0.00001649,0.00000826,-0.00000078,-0.00000659,-0.00000232,-0.
 00000326,-0.00015957,-0.00008189,0.00004077,0.00020370,-0.00016895,-0.
 00095443,-0.00037968,-0.00003415,0.00003343,0.00008331,0.00006150,0.00
 008948,0.00578838,-0.00576165,0.00238479,-0.00143649,0.00057028,0.0026
 8425,-0.03029722,-0.32832683,0.10123377,0.00108275,-0.00084841,0.00166
 374,-0.00579230,-0.00555891,0.00091126,0.03116843,0.34017516,0.0000142
 4,0.00000820,0.00000412,-0.00001129,0.00000247,0.00000328,0.00002082,-
 0.00000133,-0.00000467,0.00000222,0.00000147,-0.00000086,0.00000064,0.
 00000171,0.00000149,-0.00000296,-0.00000168,-0.00000037,0.00003714,-0.
 00000178,0.,0.00000788,-0.00001136,0.00000082,0.00000562,-0.00001118,-
 0.00001169,0.00000148,-0.00000060,0.00000054,-0.00001112,0.00000275,-0
 .00000016,0.00000143,-0.00000100,0.00000037,-0.00001616,0.00001495,0.0
 0003597,-0.00001084,0.00002228,0.00003630,0.00000798,-0.00001210,-0.00
 002773,0.00000206,0.00000256,0.00000484,0.00000595,-0.00001941,-0.0000
 2760,0.00001081,0.00000397,-0.00002365,-0.00005734,-0.00000175,-0.0002
 2379,-0.00005900,0.00002040,0.00001501,-0.00000754,-0.00000030,0.00001
 708,-0.00025702,-0.00010418,0.00004479,0.00040847,-0.00025294,-0.00274
 960,0.00005077,-0.00026823,0.00024547,0.00026626,0.00000641,0.00021010
 ,-0.00030398,-0.00122350,-0.00081877,-0.00133781,0.00191376,0.00781247
 ,0.00657525,0.10155741,-0.06417308,-0.00163600,0.00198586,0.00243165,0
 .00351044,0.00435641,-0.00177416,-0.00761390,-0.10769527,0.05951207,0.
 00000701,0.00002168,-0.00000944,0.00000839,-0.00000638,0.00000746,-0.0
 0001224,-0.00000116,0.00000684,-0.00000140,-0.00000062,0.00000034,-0.0
 0001144,-0.00000063,0.00000019,-0.00000656,0.00000605,-0.00000967,0.00
 004551,0.00004867,-0.00000844,-0.00002049,-0.00004251,0.00000667,-0.00
 000525,-0.00000366,-0.00000188,-0.00000231,0.00000094,-0.00000045,-0.0
 0000152,-0.00001073,0.00000628,-0.00000152,0.00000135,-0.00000072,0.00
 001403,0.00000379,-0.00001866,0.00000623,0.00000436,-0.00001292,-0.000
 00626,-0.00000416,0.00001153,0.00000138,-0.00000038,-0.00000005,-0.000
 00288,0.00000092,0.00000850,-0.00001290,-0.00000344,0.00001160,0.00001
 091,-0.00001406,-0.00006613,-0.00002226,-0.00000322,0.00000612,0.00000
 780,-0.00000813,0.00001187,0.00001468,0.00007952,0.00016821,0.00010443
 ,0.00156505,-0.00061622,-0.00045603,0.00009987,-0.00016180,0.00014288,
 -0.00006039,-0.00000658,-0.00555514,-0.00444032,0.00015034,-0.01444980
 ,0.03377222,-0.01320905,-0.00102849,-0.00350465,0.00030203,-0.08066020
 ,0.07463438,-0.03404026,0.01223401,-0.00941926,0.00461224,0.00111858,-
 0.00040737,0.00015011,0.08869716,0.00000127,0.00000310,0.00000275,-0.0
 0000437,-0.00000098,-0.00000127,0.00000268,0.00000192,0.00000277,0.000
 00186,-0.00000137,0.00000098,0.00000024,0.00000233,0.00000207,-0.00000
 237,0.00000173,-0.00000179,-0.00000402,0.00000467,-0.00000200,-0.00000
 288,-0.00000941,-0.00000278,0.00000184,-0.00000456,-0.00000052,-0.0000
 0040,0.00000045,0.00000010,-0.00000183,0.00000109,-0.00000075,-0.00000
 042,0.00000017,-0.00000025,-0.00000340,0.00000259,0.00000678,-0.000003
 12,0.00000533,0.00000957,0.00000222,-0.00000285,-0.00000572,-0.0000000
 7,0.00000029,0.00000069,0.00000181,-0.00000445,-0.00000714,0.00000241,
 -0.00000006,-0.00000472,0.00000381,0.00000649,0.00000983,0.00000325,0.
 00000137,-0.00000092,-0.00000436,0.00000061,0.00000130,0.00005825,-0.0
 0007851,-0.00001967,-0.00008295,0.00044433,0.00041265,-0.00016881,0.00
 005013,-0.00001947,-0.00001281,0.00006495,0.00000076,-0.00169719,0.002
 38416,-0.00006628,-0.00064388,0.00263944,-0.00288481,-0.00291708,-0.00
 252551,0.00240388,0.08634066,-0.30027515,0.10870923,0.01187902,-0.0053
 1875,0.00480153,0.00076774,-0.00012824,0.00047385,-0.09325972,0.302960
 67,0.00001535,0.00000692,-0.00000560,-0.00001331,-0.00000729,-0.000005
 10,0.00001091,0.00001065,0.00000528,0.00000265,-0.00000236,0.00000104,
 0.00000467,0.00000309,0.00000423,-0.00000667,0.00000076,0.00000268,-0.
 00000438,0.00000864,0.00002832,-0.00000493,-0.00002083,-0.00001343,0.0
 0000379,-0.00001083,-0.00000381,0.00000037,0.00000011,0.00000031,-0.00
 000456,0.00000660,-0.00000374,-0.00000152,-0.00000014,0.00000006,-0.00
 001425,0.00001001,0.00002775,-0.00000727,0.00001181,0.00002488,0.00000
 570,-0.00000853,-0.00002033,0.00000189,0.00000162,0.00000201,0.0000047
 5,-0.00001144,-0.00001928,0.00001088,-0.00000150,-0.00001879,0.0000271
 3,0.00005062,0.00007173,0.00002764,-0.00000360,-0.00000633,0.00000672,
 -0.00000067,0.00000691,0.00026126,-0.00022705,0.00003047,-0.00016425,0
 .00109959,0.00139476,-0.00041656,-0.00005884,-0.00009171,-0.00002408,0
 .00010197,-0.00002021,-0.00054455,-0.00062568,0.00286117,-0.00101202,0
 .00206914,-0.00614195,-0.00013310,0.00227320,0.00462475,-0.03807587,0.
 10718263,-0.07005675,-0.00286665,0.00146262,0.00243442,-0.00021203,0.0
 0031629,0.00082277,0.04263841,-0.11284507,0.06661959,0.00000579,0.0000
 1410,-0.00001146,0.00000679,-0.00000828,-0.00000945,-0.00002866,-0.000
 00688,0.00001325,0.00000253,-0.00000117,0.00000077,-0.00000055,-0.0000
 0044,0.00000047,0.00000493,0.00000707,-0.00000021,0.00005025,0.0000474
 1,-0.00001275,-0.00003434,-0.00002738,-0.00000137,-0.00000924,0.000013
 88,0.00001125,-0.00000213,0.00000275,0.00000041,0.00000008,0.00000611,
 -0.00000981,0.00000117,0.00000320,-0.00000005,0.00001791,-0.00004119,-
 0.00000488,0.00001847,-0.00003563,-0.00002863,-0.00001214,0.00001640,0
 .00001597,0.00000459,-0.00000528,0.00000162,-0.00001600,0.00002297,0.0
 0002552,-0.00001701,0.00001363,-0.00000620,0.00001528,-0.00004083,-0.0
 0008265,-0.00003417,0.00000798,0.00001061,-0.00000331,0.00000037,0.000
 01254,-0.00009602,0.00004416,0.00008973,-0.00022317,-0.00055918,0.0001
 6831,0.00005477,-0.00002213,-0.00002861,-0.00014533,0.00002457,-0.0000
 9606,-0.00157908,0.00163455,-0.00140802,0.00095504,-0.00113746,-0.0007
 9804,-0.00742800,-0.00765994,0.00171665,-0.00446545,0.00452546,-0.0020
 1156,-0.35285586,-0.06288078,-0.02479405,0.00037032,0.00016380,0.00024
 538,-0.00015631,-0.00025737,0.00048387,0.36559886,-0.00000035,-0.00000
 869,0.00000541,-0.00000453,0.00000566,-0.00000138,0.00001516,0.0000029
 0,-0.00000680,-0.00000077,0.00000155,-0.00000095,0.00000207,0.00000141
 ,-0.00000030,0.00000045,-0.00000215,0.00000335,-0.00003979,-0.00003822
 ,0.00002190,0.00002166,0.00001690,0.00000028,0.00000709,-0.00000866,-0
 .00000638,0.00000153,-0.00000162,-0.00000017,0.00000053,-0.00000286,0.
 00000542,-0.00000097,-0.00000198,-0.00000007,-0.00001434,0.00003042,0.
 00000950,-0.00001188,0.00002546,0.00001872,0.00000735,-0.00001418,-0.0
 0001335,-0.00000101,0.00000486,-0.00000049,0.00000941,-0.00001731,-0.0
 0001760,0.00001304,-0.00001152,0.00000003,0.00001611,0.00005179,0.0000
 9911,0.00003620,-0.00001094,-0.00000737,0.00000006,-0.00000022,-0.0000
 0829,0.00014958,-0.00005958,-0.00006721,0.00040989,0.00113117,-0.00009
 290,-0.00009445,0.00003723,-0.00002319,0.00027133,-0.00003302,0.000041
 84,0.00337229,-0.00449961,0.00339124,-0.00589274,-0.00255239,0.0032847
 3,0.01754106,0.00983584,-0.00115071,-0.02142327,0.00500974,-0.00539780
 ,-0.06035737,-0.06492932,0.00338062,-0.00112085,0.00006029,-0.00076787
 ,0.00095198,-0.00022599,-0.00079245,0.06613554,0.05620302,0.00001587,0
 .00001535,-0.00001217,-0.00000170,-0.00000736,-0.00001497,-0.00000717,
 -0.00000019,0.00000394,0.00000258,-0.00000110,0.00000054,0.00000231,0.
 00000107,0.00000147,-0.00000188,-0.00000086,0.00000175,-0.00000091,0.0
 0002019,0.00004514,-0.00002402,-0.00002087,-0.00001982,-0.00000160,-0.
 00000008,0.00000588,-0.00000071,0.00000093,-0.00000041,0.00000069,0.00
 000753,-0.00000903,-0.00000094,0.00000053,-0.00000016,-0.00001117,-0.0
 0001089,0.00003208,-0.00000267,-0.00000892,0.00001559,0.00000406,0.000
 00153,-0.00001639,0.00000154,-0.00000077,0.00000238,-0.00000042,-0.000
 00027,-0.00000880,0.00001035,0.00000759,-0.00002397,0.00000800,-0.0000
 2762,0.00003993,0.00000787,-0.00000580,0.00000123,0.00001242,-0.000002
 11,0.00000802,0.00015753,0.00000436,0.00002368,-0.00056756,-0.00016998
 ,0.00103350,0.00005916,-0.00003748,-0.00001195,-0.00033433,0.00010903,
 -0.00016560,-0.00179614,0.00303800,0.00212332,0.00087069,0.00400963,0.
 00785063,-0.00711788,-0.00485387,-0.00008258,0.00715553,-0.00158710,0.
 00009585,-0.02570520,0.00299774,-0.03452555,0.00069471,-0.00059572,-0.
 00136300,0.00006351,-0.00097561,-0.00255608,0.02650746,-0.00190686,0.0
 2752556\\0.00000035,0.00000166,0.00000009,-0.00000040,0.00000136,0.000
 00095,-0.00000029,-0.00000013,0.00000157,0.,0.00000219,-0.00000013,-0.
 00000040,0.00000196,0.00000208,-0.00000057,-0.00000032,0.00000214,0.00
 000084,0.00000057,0.00000041,0.00000139,0.00000070,0.00000103,-0.00000
 027,0.00000117,0.00000022,-0.00000031,0.00000175,0.00000105,-0.0000015
 5,-0.00000069,-0.00000068,-0.00000016,-0.00000089,0.00000125,-0.000002
 81,-0.00000017,-0.00000026,0.00000074,0.00000118,-0.00000121,-0.000000
 23,0.00000010,-0.00000176,0.00000087,-0.00000006,-0.00000228,0.0000002
 4,0.00000217,-0.00000131,0.00000175,-0.00000190,-0.00000125,0.00000179
 ,-0.00000292,0.00000005,-0.00000056,-0.00000189,-0.00000002,-0.0000008
 8,-0.00000031,-0.00000093,0.00000028,-0.00000197,-0.00000025,0.0000010
 9,0.00000072,0.00000033,0.00000057,-0.00000047,-0.00000104,-0.00000013
 ,0.00000021,0.00000033,0.00000023,-0.00000284,-0.00000315,-0.00000072,
 0.00000061,0.00000179,-0.00000033,0.00000084,-0.00000055,-0.00000049,0
 .00000015,0.00000219,0.00000004,-0.00000126,-0.00000083,0.00000014,-0.
 00000074,-0.00000107,-0.00000043,0.00000009,0.00000127,0.00000018,-0.0
 0000085,-0.00000005\\\@


 We make a living by what we get,
 we make a life by what we give.
                   -- Sir Winston Churchill
 Job cpu time:       0 days  2 hours  1 minutes 16.4 seconds.
 Elapsed time:       0 days  0 hours 15 minutes 33.4 seconds.
 File lengths (MBytes):  RWF=    484 Int=      0 D2E=      0 Chk=     16 Scr=      1
 Normal termination of Gaussian 16 at Mon Nov 18 16:41:42 2024.
