 Entering Gaussian System, Link 0=g16
 Initial command:
 /apps/brussel/RL8/skylake-ib/software/Gaussian/G16.A.03-intel-2022a/g16/l1.exe "/tmp/10134553/Gau-4171484.inp" -scrdir="/tmp/10134553/"
 Entering Link 1 = /apps/brussel/RL8/skylake-ib/software/Gaussian/G16.A.03-intel-2022a/g16/l1.exe.bin PID=   4171485.
  
 Copyright (c) 1988,1990,1992,1993,1995,1998,2003,2009,2016,
            Gaussian, Inc.  All Rights Reserved.
  
 This is part of the Gaussian(R) 16 program.  It is based on
 the Gaussian(R) 09 system (copyright 2009, Gaussian, Inc.),
 the Gaussian(R) 03 system (copyright 2003, Gaussian, Inc.),
 the Gaussian(R) 98 system (copyright 1998, Gaussian, Inc.),
 the Gaussian(R) 94 system (copyright 1995, Gaussian, Inc.),
 the Gaussian 92(TM) system (copyright 1992, Gaussian, Inc.),
 the Gaussian 90(TM) system (copyright 1990, Gaussian, Inc.),
 the Gaussian 88(TM) system (copyright 1988, Gaussian, Inc.),
 the Gaussian 86(TM) system (copyright 1986, Carnegie Mellon
 University), and the Gaussian 82(TM) system (copyright 1983,
 Carnegie Mellon University). Gaussian is a federally registered
 trademark of Gaussian, Inc.
  
 This software contains proprietary and confidential information,
 including trade secrets, belonging to Gaussian, Inc.
  
 This software is provided under written license and may be
 used, copied, transmitted, or stored only in accord with that
 written license.
  
 The following legend is applicable only to US Government
 contracts under FAR:
  
                    RESTRICTED RIGHTS LEGEND
  
 Use, reproduction and disclosure by the US Government is
 subject to restrictions as set forth in subparagraphs (a)
 and (c) of the Commercial Computer Software - Restricted
 Rights clause in FAR 52.227-19.
  
 Gaussian, Inc.
 340 Quinnipiac St., Bldg. 40, Wallingford CT 06492
  
  
 ---------------------------------------------------------------
 Warning -- This program may not be used in any manner that
 competes with the business of Gaussian, Inc. or will provide
 assistance to any competitor of Gaussian, Inc.  The licensee
 of this program is prohibited from giving any competitor of
 Gaussian, Inc. access to this program.  By using this program,
 the user acknowledges that Gaussian, Inc. is engaged in the
 business of creating and licensing software in the field of
 computational chemistry and represents and warrants to the
 licensee that it is not a competitor of Gaussian, Inc. and that
 it will not use this program in any manner prohibited above.
 ---------------------------------------------------------------
  

 Cite this work as:
 Gaussian 16, Revision A.03,
 M. J. Frisch, G. W. Trucks, H. B. Schlegel, G. E. Scuseria, 
 M. A. Robb, J. R. Cheeseman, G. Scalmani, V. Barone, 
 G. A. Petersson, H. Nakatsuji, X. Li, M. Caricato, A. V. Marenich, 
 J. Bloino, B. G. Janesko, R. Gomperts, B. Mennucci, H. P. Hratchian, 
 J. V. Ortiz, A. F. Izmaylov, J. L. Sonnenberg, D. Williams-Young, 
 F. Ding, F. Lipparini, F. Egidi, J. Goings, B. Peng, A. Petrone, 
 T. Henderson, D. Ranasinghe, V. G. Zakrzewski, J. Gao, N. Rega, 
 G. Zheng, W. Liang, M. Hada, M. Ehara, K. Toyota, R. Fukuda, 
 J. Hasegawa, M. Ishida, T. Nakajima, Y. Honda, O. Kitao, H. Nakai, 
 T. Vreven, K. Throssell, J. A. Montgomery, Jr., J. E. Peralta, 
 F. Ogliaro, M. J. Bearpark, J. J. Heyd, E. N. Brothers, K. N. Kudin, 
 V. N. Staroverov, T. A. Keith, R. Kobayashi, J. Normand, 
 K. Raghavachari, A. P. Rendell, J. C. Burant, S. S. Iyengar, 
 J. Tomasi, M. Cossi, J. M. Millam, M. Klene, C. Adamo, R. Cammi, 
 J. W. Ochterski, R. L. Martin, K. Morokuma, O. Farkas, 
 J. B. Foresman, and D. J. Fox, Gaussian, Inc., Wallingford CT, 2016.
 
 ******************************************
 Gaussian 16:  ES64L-G16RevA.03 25-Dec-2016
                18-Nov-2024 
 ******************************************
 %mem=16000MB
 %nprocshared=4
 Will use up to    4 processors via shared memory.
 %chk=FuranmalTSEndo.chk
 ----------------------------------------------------------------------
 # opt=(calcfc,ts,noeigentest) freq cc-pvdz empiricaldispersion=gd3 m06
 2x
 ----------------------------------------------------------------------
 1/5=1,10=4,11=1,18=20,26=3,38=1/1,3;
 2/9=110,12=2,17=6,18=5,40=1/2;
 3/5=16,11=2,25=1,30=1,71=2,74=-55,124=31,140=1/1,2,3;
 4//1;
 5/5=2,38=5/2;
 8/6=4,10=90,11=11/1;
 11/6=1,8=1,9=11,15=111,16=1/1,2,10;
 10/6=1,13=1/2;
 6/7=2,8=2,9=2,10=2,28=1/1;
 7/10=1,18=20,25=1/1,2,3,16;
 1/5=1,10=4,11=1,18=20,26=3/3(2);
 2/9=110/2;
 99//99;
 2/9=110/2;
 3/5=16,11=2,25=1,30=1,71=1,74=-55,124=31/1,2,3;
 4/5=5,16=3,69=1/1;
 5/5=2,38=5/2;
 7//1,2,3,16;
 1/5=1,11=1,18=20,26=3/3(-5);
 2/9=110/2;
 6/7=2,8=2,9=2,10=2,19=2,28=1/1;
 99/9=1/99;
 --------------------
 FuranMaleimideTSEndo
 --------------------
 Symbolic Z-matrix:
 Charge =  0 Multiplicity = 1
 C                     3.47402  -0.54499  -0.89722 
 C                     2.47103   0.42569  -1.05091 
 C                     1.05329  -0.38902  -0.16358 
 C                     1.53548  -0.32642   1.17644 
 C                     2.49164  -1.30631   1.28296 
 H                     1.26798   0.44286   1.89613 
 H                     3.1767   -1.49672   2.1045 
 C                     2.55215  -1.92148   0.00301 
 H                     3.01429  -2.8667   -0.26857 
 C                     4.46283  -0.01741   0.09697 
 C                     2.79128   1.57712  -0.15937 
 O                     2.18135   2.60982  -0.00992 
 O                     5.48877  -0.51552   0.48839 
 H                     3.82055  -1.22136  -1.67517 
 H                     1.89809   0.60035  -1.95912 
 O                     1.42929  -1.59245  -0.69071 
 N                     3.9441    1.20593   0.53048 
 H                     4.38275   1.7784    1.24254 
 C                    -0.16812   0.26166  -0.71582 
 H                    -0.06148   1.35019  -0.58688 
 H                    -0.25295   0.03049  -1.78724 
 S                    -1.66174  -0.32041   0.16709 
 C                    -2.86498   0.79576  -0.65752 
 H                    -2.61802   1.83644  -0.40813 
 H                    -2.783     0.65479  -1.74502 
 C                    -4.24509   0.49136  -0.20786 
 O                    -4.84929  -0.58732  -0.76796 
 C                    -5.07248   1.06847   0.70885 
 C                    -6.07622  -0.69793  -0.2068 
 C                    -6.27638   0.28857   0.7073 
 H                    -4.84674   1.94305   1.31105 
 H                    -6.68608  -1.52101  -0.56233 
 H                    -7.16851   0.44402   1.30499 
 
 Add virtual bond connecting atoms C3         and C2         Dist= 3.52D+00.
 Add virtual bond connecting atoms C8         and C1         Dist= 3.56D+00.

 GradGradGradGradGradGradGradGradGradGradGradGradGradGradGradGradGradGrad
 Berny optimization.
 Initialization pass.
                           ----------------------------
                           !    Initial Parameters    !
                           ! (Angstroms and Degrees)  !
 --------------------------                            --------------------------
 ! Name  Definition              Value          Derivative Info.                !
 --------------------------------------------------------------------------------
 ! R1    R(1,2)                  1.4042         calculate D2E/DX2 analytically  !
 ! R2    R(1,8)                  1.8855         calculate D2E/DX2 analytically  !
 ! R3    R(1,10)                 1.4982         calculate D2E/DX2 analytically  !
 ! R4    R(1,14)                 1.0875         calculate D2E/DX2 analytically  !
 ! R5    R(2,3)                  1.8604         calculate D2E/DX2 analytically  !
 ! R6    R(2,11)                 1.491          calculate D2E/DX2 analytically  !
 ! R7    R(2,15)                 1.0879         calculate D2E/DX2 analytically  !
 ! R8    R(3,4)                  1.4255         calculate D2E/DX2 analytically  !
 ! R9    R(3,16)                 1.3666         calculate D2E/DX2 analytically  !
 ! R10   R(3,19)                 1.49           calculate D2E/DX2 analytically  !
 ! R11   R(4,5)                  1.3732         calculate D2E/DX2 analytically  !
 ! R12   R(4,6)                  1.0869         calculate D2E/DX2 analytically  !
 ! R13   R(5,7)                  1.0865         calculate D2E/DX2 analytically  !
 ! R14   R(5,8)                  1.4214         calculate D2E/DX2 analytically  !
 ! R15   R(8,9)                  1.0866         calculate D2E/DX2 analytically  !
 ! R16   R(8,16)                 1.3603         calculate D2E/DX2 analytically  !
 ! R17   R(10,13)                1.2058         calculate D2E/DX2 analytically  !
 ! R18   R(10,17)                1.3977         calculate D2E/DX2 analytically  !
 ! R19   R(11,12)                1.2086         calculate D2E/DX2 analytically  !
 ! R20   R(11,17)                1.3938         calculate D2E/DX2 analytically  !
 ! R21   R(17,18)                1.0135         calculate D2E/DX2 analytically  !
 ! R22   R(19,20)                1.1013         calculate D2E/DX2 analytically  !
 ! R23   R(19,21)                1.0994         calculate D2E/DX2 analytically  !
 ! R24   R(19,22)                1.8301         calculate D2E/DX2 analytically  !
 ! R25   R(22,23)                1.8367         calculate D2E/DX2 analytically  !
 ! R26   R(23,24)                1.0983         calculate D2E/DX2 analytically  !
 ! R27   R(23,25)                1.0997         calculate D2E/DX2 analytically  !
 ! R28   R(23,26)                1.4831         calculate D2E/DX2 analytically  !
 ! R29   R(26,27)                1.3573         calculate D2E/DX2 analytically  !
 ! R30   R(26,28)                1.3631         calculate D2E/DX2 analytically  !
 ! R31   R(27,29)                1.3537         calculate D2E/DX2 analytically  !
 ! R32   R(28,30)                1.4344         calculate D2E/DX2 analytically  !
 ! R33   R(28,31)                1.0856         calculate D2E/DX2 analytically  !
 ! R34   R(29,30)                1.3597         calculate D2E/DX2 analytically  !
 ! R35   R(29,32)                1.0843         calculate D2E/DX2 analytically  !
 ! R36   R(30,33)                1.085          calculate D2E/DX2 analytically  !
 ! A1    A(2,1,8)              101.9867         calculate D2E/DX2 analytically  !
 ! A2    A(2,1,10)             107.4952         calculate D2E/DX2 analytically  !
 ! A3    A(2,1,14)             125.395          calculate D2E/DX2 analytically  !
 ! A4    A(8,1,10)             105.2452         calculate D2E/DX2 analytically  !
 ! A5    A(8,1,14)              92.4818         calculate D2E/DX2 analytically  !
 ! A6    A(10,1,14)            118.9073         calculate D2E/DX2 analytically  !
 ! A7    A(1,2,3)              100.9177         calculate D2E/DX2 analytically  !
 ! A8    A(1,2,11)             108.3586         calculate D2E/DX2 analytically  !
 ! A9    A(1,2,15)             125.345          calculate D2E/DX2 analytically  !
 ! A10   A(3,2,11)             102.5135         calculate D2E/DX2 analytically  !
 ! A11   A(3,2,15)              93.8502         calculate D2E/DX2 analytically  !
 ! A12   A(11,2,15)            119.2276         calculate D2E/DX2 analytically  !
 ! A13   A(2,3,4)               99.8662         calculate D2E/DX2 analytically  !
 ! A14   A(2,3,16)              89.5408         calculate D2E/DX2 analytically  !
 ! A15   A(2,3,19)             104.8729         calculate D2E/DX2 analytically  !
 ! A16   A(4,3,16)             107.9512         calculate D2E/DX2 analytically  !
 ! A17   A(4,3,19)             127.3366         calculate D2E/DX2 analytically  !
 ! A18   A(16,3,19)            117.8485         calculate D2E/DX2 analytically  !
 ! A19   A(3,4,5)              106.0876         calculate D2E/DX2 analytically  !
 ! A20   A(3,4,6)              124.77           calculate D2E/DX2 analytically  !
 ! A21   A(5,4,6)              128.6862         calculate D2E/DX2 analytically  !
 ! A22   A(4,5,7)              128.5157         calculate D2E/DX2 analytically  !
 ! A23   A(4,5,8)              105.582          calculate D2E/DX2 analytically  !
 ! A24   A(7,5,8)              125.3234         calculate D2E/DX2 analytically  !
 ! A25   A(1,8,5)               97.7473         calculate D2E/DX2 analytically  !
 ! A26   A(1,8,9)              107.9253         calculate D2E/DX2 analytically  !
 ! A27   A(1,8,16)              89.0554         calculate D2E/DX2 analytically  !
 ! A28   A(5,8,9)              128.289          calculate D2E/DX2 analytically  !
 ! A29   A(5,8,16)             108.6271         calculate D2E/DX2 analytically  !
 ! A30   A(9,8,16)             115.7229         calculate D2E/DX2 analytically  !
 ! A31   A(1,10,13)            129.1629         calculate D2E/DX2 analytically  !
 ! A32   A(1,10,17)            105.6104         calculate D2E/DX2 analytically  !
 ! A33   A(13,10,17)           125.2161         calculate D2E/DX2 analytically  !
 ! A34   A(2,11,12)            128.7088         calculate D2E/DX2 analytically  !
 ! A35   A(2,11,17)            105.5411         calculate D2E/DX2 analytically  !
 ! A36   A(12,11,17)           125.7144         calculate D2E/DX2 analytically  !
 ! A37   A(3,16,8)             104.088          calculate D2E/DX2 analytically  !
 ! A38   A(10,17,11)           112.7397         calculate D2E/DX2 analytically  !
 ! A39   A(10,17,18)           123.4817         calculate D2E/DX2 analytically  !
 ! A40   A(11,17,18)           123.7306         calculate D2E/DX2 analytically  !
 ! A41   A(3,19,20)            107.99           calculate D2E/DX2 analytically  !
 ! A42   A(3,19,21)            109.4286         calculate D2E/DX2 analytically  !
 ! A43   A(3,19,22)            110.5679         calculate D2E/DX2 analytically  !
 ! A44   A(20,19,21)           109.2329         calculate D2E/DX2 analytically  !
 ! A45   A(20,19,22)           109.6887         calculate D2E/DX2 analytically  !
 ! A46   A(21,19,22)           109.8969         calculate D2E/DX2 analytically  !
 ! A47   A(19,22,23)            97.1682         calculate D2E/DX2 analytically  !
 ! A48   A(22,23,24)           109.0611         calculate D2E/DX2 analytically  !
 ! A49   A(22,23,25)           108.4965         calculate D2E/DX2 analytically  !
 ! A50   A(22,23,26)           110.412          calculate D2E/DX2 analytically  !
 ! A51   A(24,23,25)           109.2241         calculate D2E/DX2 analytically  !
 ! A52   A(24,23,26)           109.5655         calculate D2E/DX2 analytically  !
 ! A53   A(25,23,26)           110.054          calculate D2E/DX2 analytically  !
 ! A54   A(23,26,27)           116.8866         calculate D2E/DX2 analytically  !
 ! A55   A(23,26,28)           132.9895         calculate D2E/DX2 analytically  !
 ! A56   A(27,26,28)           110.1079         calculate D2E/DX2 analytically  !
 ! A57   A(26,27,29)           107.2975         calculate D2E/DX2 analytically  !
 ! A58   A(26,28,30)           106.1724         calculate D2E/DX2 analytically  !
 ! A59   A(26,28,31)           126.0108         calculate D2E/DX2 analytically  !
 ! A60   A(30,28,31)           127.8168         calculate D2E/DX2 analytically  !
 ! A61   A(27,29,30)           110.6599         calculate D2E/DX2 analytically  !
 ! A62   A(27,29,32)           115.8407         calculate D2E/DX2 analytically  !
 ! A63   A(30,29,32)           133.4988         calculate D2E/DX2 analytically  !
 ! A64   A(28,30,29)           105.7619         calculate D2E/DX2 analytically  !
 ! A65   A(28,30,33)           127.7036         calculate D2E/DX2 analytically  !
 ! A66   A(29,30,33)           126.5345         calculate D2E/DX2 analytically  !
 ! D1    D(8,1,2,3)              2.7752         calculate D2E/DX2 analytically  !
 ! D2    D(8,1,2,11)           110.0233         calculate D2E/DX2 analytically  !
 ! D3    D(8,1,2,15)           -99.9714         calculate D2E/DX2 analytically  !
 ! D4    D(10,1,2,3)          -107.6371         calculate D2E/DX2 analytically  !
 ! D5    D(10,1,2,11)           -0.389          calculate D2E/DX2 analytically  !
 ! D6    D(10,1,2,15)          149.6163         calculate D2E/DX2 analytically  !
 ! D7    D(14,1,2,3)           104.6141         calculate D2E/DX2 analytically  !
 ! D8    D(14,1,2,11)         -148.1379         calculate D2E/DX2 analytically  !
 ! D9    D(14,1,2,15)            1.8675         calculate D2E/DX2 analytically  !
 ! D10   D(2,1,8,5)            -74.5001         calculate D2E/DX2 analytically  !
 ! D11   D(2,1,8,9)            150.9727         calculate D2E/DX2 analytically  !
 ! D12   D(2,1,8,16)            34.1719         calculate D2E/DX2 analytically  !
 ! D13   D(10,1,8,5)            37.6108         calculate D2E/DX2 analytically  !
 ! D14   D(10,1,8,9)           -96.9163         calculate D2E/DX2 analytically  !
 ! D15   D(10,1,8,16)          146.2828         calculate D2E/DX2 analytically  !
 ! D16   D(14,1,8,5)           158.4953         calculate D2E/DX2 analytically  !
 ! D17   D(14,1,8,9)            23.9681         calculate D2E/DX2 analytically  !
 ! D18   D(14,1,8,16)          -92.8327         calculate D2E/DX2 analytically  !
 ! D19   D(2,1,10,13)         -177.8787         calculate D2E/DX2 analytically  !
 ! D20   D(2,1,10,17)            3.2726         calculate D2E/DX2 analytically  !
 ! D21   D(8,1,10,13)           73.9652         calculate D2E/DX2 analytically  !
 ! D22   D(8,1,10,17)         -104.8835         calculate D2E/DX2 analytically  !
 ! D23   D(14,1,10,13)         -27.6751         calculate D2E/DX2 analytically  !
 ! D24   D(14,1,10,17)         153.4762         calculate D2E/DX2 analytically  !
 ! D25   D(1,2,3,4)             69.0057         calculate D2E/DX2 analytically  !
 ! D26   D(1,2,3,16)           -39.1408         calculate D2E/DX2 analytically  !
 ! D27   D(1,2,3,19)          -157.9056         calculate D2E/DX2 analytically  !
 ! D28   D(11,2,3,4)           -42.7954         calculate D2E/DX2 analytically  !
 ! D29   D(11,2,3,16)         -150.9419         calculate D2E/DX2 analytically  !
 ! D30   D(11,2,3,19)           90.2933         calculate D2E/DX2 analytically  !
 ! D31   D(15,2,3,4)          -163.875          calculate D2E/DX2 analytically  !
 ! D32   D(15,2,3,16)           87.9784         calculate D2E/DX2 analytically  !
 ! D33   D(15,2,3,19)          -30.7864         calculate D2E/DX2 analytically  !
 ! D34   D(1,2,11,12)          179.4563         calculate D2E/DX2 analytically  !
 ! D35   D(1,2,11,17)           -2.6449         calculate D2E/DX2 analytically  !
 ! D36   D(3,2,11,12)          -74.399          calculate D2E/DX2 analytically  !
 ! D37   D(3,2,11,17)          103.4999         calculate D2E/DX2 analytically  !
 ! D38   D(15,2,11,12)          27.3131         calculate D2E/DX2 analytically  !
 ! D39   D(15,2,11,17)        -154.788          calculate D2E/DX2 analytically  !
 ! D40   D(2,3,4,5)            -76.0248         calculate D2E/DX2 analytically  !
 ! D41   D(2,3,4,6)             96.7919         calculate D2E/DX2 analytically  !
 ! D42   D(16,3,4,5)            16.7147         calculate D2E/DX2 analytically  !
 ! D43   D(16,3,4,6)          -170.4686         calculate D2E/DX2 analytically  !
 ! D44   D(19,3,4,5)           166.5661         calculate D2E/DX2 analytically  !
 ! D45   D(19,3,4,6)           -20.6172         calculate D2E/DX2 analytically  !
 ! D46   D(2,3,16,8)            73.3471         calculate D2E/DX2 analytically  !
 ! D47   D(4,3,16,8)           -26.8785         calculate D2E/DX2 analytically  !
 ! D48   D(19,3,16,8)          179.9701         calculate D2E/DX2 analytically  !
 ! D49   D(2,3,19,20)          -54.7865         calculate D2E/DX2 analytically  !
 ! D50   D(2,3,19,21)           64.016          calculate D2E/DX2 analytically  !
 ! D51   D(2,3,19,22)         -174.7993         calculate D2E/DX2 analytically  !
 ! D52   D(4,3,19,20)           60.3996         calculate D2E/DX2 analytically  !
 ! D53   D(4,3,19,21)          179.202          calculate D2E/DX2 analytically  !
 ! D54   D(4,3,19,22)          -59.6132         calculate D2E/DX2 analytically  !
 ! D55   D(16,3,19,20)        -152.3098         calculate D2E/DX2 analytically  !
 ! D56   D(16,3,19,21)         -33.5074         calculate D2E/DX2 analytically  !
 ! D57   D(16,3,19,22)          87.6774         calculate D2E/DX2 analytically  !
 ! D58   D(3,4,5,7)            171.6367         calculate D2E/DX2 analytically  !
 ! D59   D(3,4,5,8)              0.1034         calculate D2E/DX2 analytically  !
 ! D60   D(6,4,5,7)             -0.8018         calculate D2E/DX2 analytically  !
 ! D61   D(6,4,5,8)           -172.3351         calculate D2E/DX2 analytically  !
 ! D62   D(4,5,8,1)             74.582          calculate D2E/DX2 analytically  !
 ! D63   D(4,5,8,9)           -165.2102         calculate D2E/DX2 analytically  !
 ! D64   D(4,5,8,16)           -17.0396         calculate D2E/DX2 analytically  !
 ! D65   D(7,5,8,1)            -97.3009         calculate D2E/DX2 analytically  !
 ! D66   D(7,5,8,9)             22.9069         calculate D2E/DX2 analytically  !
 ! D67   D(7,5,8,16)           171.0775         calculate D2E/DX2 analytically  !
 ! D68   D(1,8,16,3)           -70.7213         calculate D2E/DX2 analytically  !
 ! D69   D(5,8,16,3)            27.1366         calculate D2E/DX2 analytically  !
 ! D70   D(9,8,16,3)           179.783          calculate D2E/DX2 analytically  !
 ! D71   D(1,10,17,11)          -5.2095         calculate D2E/DX2 analytically  !
 ! D72   D(1,10,17,18)         177.2284         calculate D2E/DX2 analytically  !
 ! D73   D(13,10,17,11)        175.8832         calculate D2E/DX2 analytically  !
 ! D74   D(13,10,17,18)         -1.6789         calculate D2E/DX2 analytically  !
 ! D75   D(2,11,17,10)           4.9703         calculate D2E/DX2 analytically  !
 ! D76   D(2,11,17,18)        -177.4747         calculate D2E/DX2 analytically  !
 ! D77   D(12,11,17,10)       -177.049          calculate D2E/DX2 analytically  !
 ! D78   D(12,11,17,18)          0.506          calculate D2E/DX2 analytically  !
 ! D79   D(3,19,22,23)         174.67           calculate D2E/DX2 analytically  !
 ! D80   D(20,19,22,23)         55.6816         calculate D2E/DX2 analytically  !
 ! D81   D(21,19,22,23)        -64.4232         calculate D2E/DX2 analytically  !
 ! D82   D(19,22,23,24)        -63.6593         calculate D2E/DX2 analytically  !
 ! D83   D(19,22,23,25)         55.2174         calculate D2E/DX2 analytically  !
 ! D84   D(19,22,23,26)        175.9011         calculate D2E/DX2 analytically  !
 ! D85   D(22,23,26,27)        -78.7002         calculate D2E/DX2 analytically  !
 ! D86   D(22,23,26,28)         99.6728         calculate D2E/DX2 analytically  !
 ! D87   D(24,23,26,27)        161.1629         calculate D2E/DX2 analytically  !
 ! D88   D(24,23,26,28)        -20.4641         calculate D2E/DX2 analytically  !
 ! D89   D(25,23,26,27)         41.0483         calculate D2E/DX2 analytically  !
 ! D90   D(25,23,26,28)       -140.5787         calculate D2E/DX2 analytically  !
 ! D91   D(23,26,27,29)        178.9269         calculate D2E/DX2 analytically  !
 ! D92   D(28,26,27,29)          0.1942         calculate D2E/DX2 analytically  !
 ! D93   D(23,26,28,30)       -178.6903         calculate D2E/DX2 analytically  !
 ! D94   D(23,26,28,31)          1.2459         calculate D2E/DX2 analytically  !
 ! D95   D(27,26,28,30)         -0.2356         calculate D2E/DX2 analytically  !
 ! D96   D(27,26,28,31)        179.7006         calculate D2E/DX2 analytically  !
 ! D97   D(26,27,29,30)         -0.0698         calculate D2E/DX2 analytically  !
 ! D98   D(26,27,29,32)        179.6984         calculate D2E/DX2 analytically  !
 ! D99   D(26,28,30,29)          0.1857         calculate D2E/DX2 analytically  !
 ! D100  D(26,28,30,33)       -179.721          calculate D2E/DX2 analytically  !
 ! D101  D(31,28,30,29)       -179.7489         calculate D2E/DX2 analytically  !
 ! D102  D(31,28,30,33)          0.3443         calculate D2E/DX2 analytically  !
 ! D103  D(27,29,30,28)         -0.0726         calculate D2E/DX2 analytically  !
 ! D104  D(27,29,30,33)        179.8355         calculate D2E/DX2 analytically  !
 ! D105  D(32,29,30,28)       -179.785          calculate D2E/DX2 analytically  !
 ! D106  D(32,29,30,33)          0.1231         calculate D2E/DX2 analytically  !
 --------------------------------------------------------------------------------
 Trust Radius=3.00D-01 FncErr=1.00D-07 GrdErr=1.00D-06 EigMax=2.50D+02 EigMin=1.00D-04
 Number of steps in this run=    198 maximum allowed number of steps=    198.
 Search for a saddle point of order  1.
 GradGradGradGradGradGradGradGradGradGradGradGradGradGradGradGradGradGrad

                          Input orientation:                          
 ---------------------------------------------------------------------
 Center     Atomic      Atomic             Coordinates (Angstroms)
 Number     Number       Type             X           Y           Z
 ---------------------------------------------------------------------
      1          6           0        3.474015   -0.544995   -0.897221
      2          6           0        2.471031    0.425685   -1.050907
      3          6           0        1.053289   -0.389018   -0.163578
      4          6           0        1.535480   -0.326419    1.176440
      5          6           0        2.491638   -1.306307    1.282961
      6          1           0        1.267982    0.442856    1.896129
      7          1           0        3.176705   -1.496721    2.104497
      8          6           0        2.552154   -1.921475    0.003007
      9          1           0        3.014295   -2.866701   -0.268568
     10          6           0        4.462830   -0.017410    0.096966
     11          6           0        2.791284    1.577124   -0.159370
     12          8           0        2.181346    2.609824   -0.009923
     13          8           0        5.488765   -0.515517    0.488391
     14          1           0        3.820550   -1.221356   -1.675171
     15          1           0        1.898090    0.600353   -1.959124
     16          8           0        1.429289   -1.592446   -0.690712
     17          7           0        3.944103    1.205933    0.530478
     18          1           0        4.382750    1.778403    1.242545
     19          6           0       -0.168123    0.261659   -0.715817
     20          1           0       -0.061482    1.350186   -0.586879
     21          1           0       -0.252951    0.030491   -1.787237
     22         16           0       -1.661735   -0.320411    0.167090
     23          6           0       -2.864980    0.795759   -0.657517
     24          1           0       -2.618021    1.836440   -0.408134
     25          1           0       -2.782997    0.654792   -1.745020
     26          6           0       -4.245088    0.491365   -0.207858
     27          8           0       -4.849285   -0.587315   -0.767965
     28          6           0       -5.072480    1.068468    0.708850
     29          6           0       -6.076220   -0.697933   -0.206804
     30          6           0       -6.276381    0.288567    0.707299
     31          1           0       -4.846743    1.943050    1.311050
     32          1           0       -6.686084   -1.521013   -0.562331
     33          1           0       -7.168513    0.444025    1.304990
 ---------------------------------------------------------------------
                    Distance matrix (angstroms):
                    1          2          3          4          5
     1  C    0.000000
     2  C    1.404214   0.000000
     3  C    2.534261   1.860400   0.000000
     4  C    2.847063   2.530216   1.425509   0.000000
     5  C    2.509553   2.906400   2.236681   1.373232   0.000000
     6  H    3.693946   3.183182   2.231703   1.086872   2.221009
     7  H    3.162988   3.761675   3.298494   2.219125   1.086506
     8  C    1.885454   2.574194   2.150063   2.225932   1.421399
     9  H    2.448850   3.427389   3.161563   3.275359   2.261690
    10  C    1.498168   2.341198   3.439614   3.135304   2.636938
    11  C    2.348177   1.491044   2.624188   2.642898   3.237944
    12  O    3.522950   2.436807   3.207675   3.232047   4.135688
    13  O    2.445405   3.515966   4.484921   4.017168   3.199916
    14  H    1.087546   2.218930   3.261202   3.762200   3.244037
    15  H    2.218783   1.087947   2.217325   3.289705   3.807725
    16  O    2.306665   2.299526   1.366560   2.258397   2.259612
    17  N    2.307608   2.297718   3.373780   2.926916   2.997872
    18  H    3.286727   3.277871   4.214286   3.541411   3.618477
    19  C    3.734805   2.665394   1.490032   2.613185   3.678037
    20  H    4.023402   2.735626   2.108727   2.910427   4.131789
    21  H    3.874737   2.849287   2.125681   3.479835   4.329655
    22  S    5.249679   4.372635   2.735947   3.352761   4.412218
    23  C    6.483667   5.363276   4.123167   4.897625   6.072684
    24  H    6.559218   5.319947   4.300115   4.943724   6.232598
    25  H    6.427165   5.304630   4.278737   5.305370   6.390333
    26  C    7.818812   6.769144   5.371204   6.000002   7.130052
    27  O    8.324411   7.395489   5.936749   6.679371   7.655873
    28  C    8.844507   7.772675   6.356921   6.769748   7.948902
    29  C    9.576380   8.662017   7.136329   7.745280   8.717667
    30  C    9.916629   8.923414   7.412261   7.850062   8.930463
    31  H    8.961130   7.837797   6.513328   6.775056   8.025643
    32  H   10.212364   9.374492   7.831878   8.487903   9.363855
    33  H   10.912896   9.923276   8.393371   8.738970   9.817467
                    6          7          8          9         10
     6  H    0.000000
     7  H    2.729212   0.000000
     8  C    3.289843   2.233101   0.000000
     9  H    4.323042   2.744933   1.086637   0.000000
    10  C    3.695388   2.805827   2.699069   3.217193   0.000000
    11  C    2.798588   3.836948   3.510519   4.450757   2.324288
    12  O    3.027048   4.724958   4.546464   5.545541   3.481229
    13  O    4.551397   2.986668   3.291808   3.496292   1.205764
    14  H    4.694613   3.843990   2.217043   2.309922   2.236622
    15  H    3.909581   4.748220   3.261499   4.015515   3.344702
    16  O    3.295485   3.297851   1.360269   2.077059   3.507641
    17  N    3.099825   3.220369   3.463586   4.253159   1.397705
    18  H    3.451469   3.594989   4.310062   5.072783   2.131598
    19  C    2.986217   4.715288   3.561276   4.484914   4.710013
    20  H    2.959063   5.082739   4.228809   5.229136   4.775706
    21  H    4.006303   5.407450   3.857947   4.623308   5.078495
    22  S    3.486459   5.343010   4.510786   5.342158   6.132457
    23  C    4.871039   7.027528   6.096310   6.937634   7.411295
    24  H    4.727867   7.141577   6.404816   7.339073   7.336916
    25  H    5.450992   7.413895   6.177102   6.941860   7.506449
    26  C    5.901106   8.023870   7.215869   7.998683   8.728093
    27  O    6.751267   8.572898   7.560138   8.202493   9.369546
    28  C    6.480932   8.750833   8.220281   9.046371   9.616427
    29  C    7.724055   9.570621   8.717219   9.345846  10.565366
    30  C    7.639014   9.721124   9.128162   9.860258  10.760892
    31  H    6.323192   8.765689   8.449213   9.350124   9.590910
    32  H    8.553828  10.217004   9.264179   9.797680  11.269152
    33  H    8.457180  10.556005  10.088712  10.822503  11.703008
                   11         12         13         14         15
    11  C    0.000000
    12  O    1.208647   0.000000
    13  O    3.474931   4.577673   0.000000
    14  H    3.344926   4.487536   2.821728   0.000000
    15  H    2.234053   2.813822   4.486473   2.663664   0.000000
    16  O    3.490491   4.322978   4.362271   2.612470   2.576240
    17  N    1.393795   2.317381   2.313254   3.282055   3.278874
    18  H    2.130409   2.665730   2.655953   4.222285   4.220429
    19  C    3.286057   3.395905   5.835624   4.362248   2.435111
    20  H    2.893534   2.636256   5.953343   4.781985   2.507036
    21  H    3.782776   3.967065   6.200315   4.262991   2.231875
    22  S    4.851453   4.835999   7.160374   5.853297   4.247464
    23  C    5.731667   5.401446   8.533323   7.056960   4.941579
    24  H    5.421228   4.877563   8.488548   7.239524   4.932418
    25  H    5.868355   5.610474   8.647531   6.865249   4.686297
    26  C    7.119815   6.769498   9.810529   8.375019   6.388854
    27  O    7.964514   7.760548  10.414359   8.740199   6.953883
    28  C    7.927883   7.450531  10.681644   9.487510   7.478374
    29  C    9.154822   8.897608  11.587297  10.018789   8.267152
    30  C    9.199677   8.799761  11.794623  10.483513   8.604011
    31  H    7.786880   7.182172  10.655705   9.698090   7.615094
    32  H    9.979045   9.797974  12.261403  10.569653   8.952054
    33  H   10.130441   9.687082  12.719837  11.507144   9.637540
                   16         17         18         19         20
    16  O    0.000000
    17  N    3.955568   0.000000
    18  H    4.880885   1.013495   0.000000
    19  C    2.447460   4.399467   5.181326   0.000000
    20  H    3.300343   4.161010   4.825076   1.101312   0.000000
    21  H    2.581903   4.936469   5.807280   1.099352   1.794189
    22  S    3.450844   5.821271   6.488253   1.830084   2.433141
    23  C    4.913794   6.924102   7.556813   2.749854   2.858668
    24  H    5.312046   6.658829   7.192976   2.928584   2.608502
    25  H    4.889274   7.122887   7.844487   2.837495   3.038340
    26  C    6.064155   8.253399   8.843061   4.114903   4.287632
    27  O    6.358990   9.067821   9.740085   4.757810   5.168149
    28  C    7.163256   9.019395   9.496853   5.170429   5.183472
    29  C    7.574100  10.226200  10.845410   6.007123   6.365243
    30  C    8.054191  10.263095  10.776047   6.271906   6.436373
    31  H    7.476320   8.856162   9.231216   5.368869   5.181925
    32  H    8.116703  11.028660  11.690287   6.759090   7.220093
    33  H    9.058269  11.165600  11.628248   7.288510   7.410141
                   21         22         23         24         25
    21  H    0.000000
    22  S    2.434584   0.000000
    23  C    2.946964   1.836739   0.000000
    24  H    3.279776   2.428450   1.098270   0.000000
    25  H    2.606275   2.421655   1.099662   1.791863   0.000000
    26  C    4.317870   2.733730   1.483087   2.120539   2.127742
    27  O    4.748356   3.332573   2.421272   3.314001   2.601348
    28  C    5.525912   3.722321   2.610438   2.803891   3.381470
    29  C    6.077732   4.446347   3.570199   4.292170   3.878310
    30  C    6.524647   4.685898   3.709127   4.125979   4.283891
    31  H    5.861756   4.071385   3.019755   2.816764   3.906177
    32  H    6.729990   5.217047   4.469601   5.276874   4.622442
    33  H    7.586691   5.674838   4.742947   5.057726   5.346002
                   26         27         28         29         30
    26  C    0.000000
    27  O    1.357323   0.000000
    28  C    1.363077   2.229891   0.000000
    29  C    2.183455   1.353701   2.228472   0.000000
    30  C    2.237139   2.231631   1.434443   1.359717   0.000000
    31  H    2.185511   3.274913   1.085585   3.284857   2.268412
    32  H    3.183360   2.070726   3.305303   1.084340   2.248199
    33  H    3.292015   3.277136   2.266863   2.186937   1.085035
                   31         32         33
    31  H    0.000000
    32  H    4.346546   0.000000
    33  H    2.763644   2.753362   0.000000
 Stoichiometry    C14H13NO4S
 Framework group  C1[X(C14H13NO4S)]
 Deg. of freedom    93
 Full point group                 C1      NOp   1
 Largest Abelian subgroup         C1      NOp   1
 Largest concise Abelian subgroup C1      NOp   1
                         Standard orientation:                         
 ---------------------------------------------------------------------
 Center     Atomic      Atomic             Coordinates (Angstroms)
 Number     Number       Type             X           Y           Z
 ---------------------------------------------------------------------
      1          6           0        3.438668   -0.559760   -0.890553
      2          6           0        2.419677    0.387366   -1.081405
      3          6           0        1.024923   -0.400108   -0.135025
      4          6           0        1.522257   -0.261207    1.193674
      5          6           0        2.493998   -1.220638    1.338505
      6          1           0        1.252122    0.540545    1.875958
      7          1           0        3.191658   -1.358441    2.159953
      8          6           0        2.548159   -1.900523    0.091428
      9          1           0        3.020903   -2.851953   -0.136767
     10          6           0        4.431497    0.032651    0.062258
     11          6           0        2.733613    1.587953   -0.254819
     12          8           0        2.110334    2.618302   -0.151212
     13          8           0        5.469322   -0.429917    0.465764
     14          1           0        3.785752   -1.270642   -1.636835
     15          1           0        1.833311    0.506528   -1.990033
     16          8           0        1.412274   -1.623853   -0.603952
     17          7           0        3.900022    1.269405    0.438493
     18          1           0        4.338718    1.884216    1.114308
     19          6           0       -0.212535    0.203698   -0.704508
     20          1           0       -0.120437    1.298849   -0.633446
     21          1           0       -0.306850   -0.083967   -1.761357
     22         16           0       -1.686634   -0.352781    0.226390
     23          6           0       -2.916088    0.701958   -0.639394
     24          1           0       -2.681538    1.757568   -0.447379
     25          1           0       -2.845149    0.505884   -1.719106
     26          6           0       -4.286028    0.401859   -0.156951
     27          8           0       -4.880936   -0.712876   -0.652707
     28          6           0       -5.110742    1.014039    0.739186
     29          6           0       -6.099248   -0.811526   -0.070909
     30          6           0       -6.302923    0.218182    0.793411
     31          1           0       -4.890704    1.921812    1.292383
     32          1           0       -6.701131   -1.660489   -0.375530
     33          1           0       -7.189984    0.391849    1.393632
 ---------------------------------------------------------------------
 Rotational constants (GHZ):           1.0484507           0.1300028           0.1233449
 Standard basis: CC-pVDZ (5D, 7F)
 There are   369 symmetry adapted cartesian basis functions of A   symmetry.
 There are   349 symmetry adapted basis functions of A   symmetry.
   349 basis functions,   789 primitive gaussians,   369 cartesian basis functions
    76 alpha electrons       76 beta electrons
       nuclear repulsion energy      1654.2264584432 Hartrees.
 NAtoms=   33 NActive=   33 NUniq=   33 SFac= 1.00D+00 NAtFMM=   60 NAOKFM=F Big=F
 Integral buffers will be    131072 words long.
 Raffenetti 2 integral format.
 Two-electron integral symmetry is turned on.
 Nuclear repulsion after empirical dispersion term =     1654.2249463492 Hartrees.
 One-electron integrals computed using PRISM.
 NBasis=   349 RedAO= T EigKep=  4.16D-04  NBF=   349
 NBsUse=   349 1.00D-06 EigRej= -1.00D+00 NBFU=   349
 ExpMin= 1.22D-01 ExpMax= 1.11D+05 ExpMxC= 1.07D+03 IAcc=3 IRadAn=         5 AccDes= 0.00D+00
 Harris functional with IExCor= 1009 and IRadAn=       5 diagonalized for initial guess.
 HarFok:  IExCor= 1009 AccDes= 0.00D+00 IRadAn=         5 IDoV= 1 UseB2=F ITyADJ=14
 ICtDFT=  3500011 ScaDFX=  1.000000  1.000000  1.000000  1.000000
 FoFCou: FMM=F IPFlag=           0 FMFlag=      100000 FMFlg1=           0
         NFxFlg=           0 DoJE=T BraDBF=F KetDBF=T FulRan=T
         wScrn=  0.000000 ICntrl=       500 IOpCl=  0 I1Cent=   200000004 NGrid=           0
         NMat0=    1 NMatS0=      1 NMatT0=    0 NMatD0=    1 NMtDS0=    0 NMtDT0=    0
 Petite list used in FoFCou.
 Requested convergence on RMS density matrix=1.00D-08 within 128 cycles.
 Requested convergence on MAX density matrix=1.00D-06.
 Requested convergence on             energy=1.00D-06.
 No special actions if energy rises.
 Integral accuracy reduced to 1.0D-05 until final iterations.
 Initial convergence to 1.0D-05 achieved.  Increase integral accuracy.
 SCF Done:  E(RM062X) =  -1294.79287361     A.U. after   15 cycles
            NFock= 15  Conv=0.57D-08     -V/T= 2.0043
 DoSCS=F DFT=T ScalE2(SS,OS)=  1.000000  1.000000
 Range of M.O.s used for correlation:     1   349
 NBasis=   349 NAE=    76 NBE=    76 NFC=     0 NFV=     0
 NROrb=    349 NOA=    76 NOB=    76 NVA=   273 NVB=   273
 Symmetrizing basis deriv contribution to polar:
 IMax=3 JMax=2 DiffMx= 0.00D+00
 G2DrvN: will do    34 centers at a time, making    1 passes.
 Calling FoFCou, ICntrl=  3107 FMM=F I1Cent=   0 AccDes= 0.00D+00.
 End of G2Drv F.D. properties file   721 does not exist.
 End of G2Drv F.D. properties file   722 does not exist.
 End of G2Drv F.D. properties file   788 does not exist.
          IDoAtm=111111111111111111111111111111111
          Differentiating once with respect to nuclear coordinates.
 Keep R1 ints in memory in canonical form, NReq=1890450752.
          There are   102 degrees of freedom in the 1st order CPHF.  IDoFFX=6 NUNeed=     0.
     96 vectors produced by pass  0 Test12= 2.07D-14 1.00D-09 XBig12= 1.27D-01 1.08D-01.
 AX will form    96 AO Fock derivatives at one time.
     96 vectors produced by pass  1 Test12= 2.07D-14 1.00D-09 XBig12= 2.68D-02 2.47D-02.
     96 vectors produced by pass  2 Test12= 2.07D-14 1.00D-09 XBig12= 4.43D-04 3.02D-03.
     96 vectors produced by pass  3 Test12= 2.07D-14 1.00D-09 XBig12= 4.00D-06 2.86D-04.
     96 vectors produced by pass  4 Test12= 2.07D-14 1.00D-09 XBig12= 3.04D-08 1.46D-05.
     96 vectors produced by pass  5 Test12= 2.07D-14 1.00D-09 XBig12= 1.25D-10 8.06D-07.
     81 vectors produced by pass  6 Test12= 2.07D-14 1.00D-09 XBig12= 4.09D-13 5.78D-08.
      9 vectors produced by pass  7 Test12= 2.07D-14 1.00D-09 XBig12= 1.17D-15 3.44D-09.
 InvSVY:  IOpt=1 It=  1 EMax= 7.22D-16
 Solved reduced A of dimension   666 with   102 vectors.
 End of Minotr F.D. properties file   721 does not exist.
 End of Minotr F.D. properties file   722 does not exist.
 End of Minotr F.D. properties file   788 does not exist.

 **********************************************************************

            Population analysis using the SCF density.

 **********************************************************************

 Orbital symmetries:
       Occupied  (A) (A) (A) (A) (A) (A) (A) (A) (A) (A) (A) (A)
                 (A) (A) (A) (A) (A) (A) (A) (A) (A) (A) (A) (A)
                 (A) (A) (A) (A) (A) (A) (A) (A) (A) (A) (A) (A)
                 (A) (A) (A) (A) (A) (A) (A) (A) (A) (A) (A) (A)
                 (A) (A) (A) (A) (A) (A) (A) (A) (A) (A) (A) (A)
                 (A) (A) (A) (A) (A) (A) (A) (A) (A) (A) (A) (A)
                 (A) (A) (A) (A)
       Virtual   (A) (A) (A) (A) (A) (A) (A) (A) (A) (A) (A) (A)
                 (A) (A) (A) (A) (A) (A) (A) (A) (A) (A) (A) (A)
                 (A) (A) (A) (A) (A) (A) (A) (A) (A) (A) (A) (A)
                 (A) (A) (A) (A) (A) (A) (A) (A) (A) (A) (A) (A)
                 (A) (A) (A) (A) (A) (A) (A) (A) (A) (A) (A) (A)
                 (A) (A) (A) (A) (A) (A) (A) (A) (A) (A) (A) (A)
                 (A) (A) (A) (A) (A) (A) (A) (A) (A) (A) (A) (A)
                 (A) (A) (A) (A) (A) (A) (A) (A) (A) (A) (A) (A)
                 (A) (A) (A) (A) (A) (A) (A) (A) (A) (A) (A) (A)
                 (A) (A) (A) (A) (A) (A) (A) (A) (A) (A) (A) (A)
                 (A) (A) (A) (A) (A) (A) (A) (A) (A) (A) (A) (A)
                 (A) (A) (A) (A) (A) (A) (A) (A) (A) (A) (A) (A)
                 (A) (A) (A) (A) (A) (A) (A) (A) (A) (A) (A) (A)
                 (A) (A) (A) (A) (A) (A) (A) (A) (A) (A) (A) (A)
                 (A) (A) (A) (A) (A) (A) (A) (A) (A) (A) (A) (A)
                 (A) (A) (A) (A) (A) (A) (A) (A) (A) (A) (A) (A)
                 (A) (A) (A) (A) (A) (A) (A) (A) (A) (A) (A) (A)
                 (A) (A) (A) (A) (A) (A) (A) (A) (A) (A) (A) (A)
                 (A) (A) (A) (A) (A) (A) (A) (A) (A) (A) (A) (A)
                 (A) (A) (A) (A) (A) (A) (A) (A) (A) (A) (A) (A)
                 (A) (A) (A) (A) (A) (A) (A) (A) (A) (A) (A) (A)
                 (A) (A) (A) (A) (A) (A) (A) (A) (A) (A) (A) (A)
                 (A) (A) (A) (A) (A) (A) (A) (A) (A)
 The electronic state is 1-A.
 Alpha  occ. eigenvalues --  -89.91925 -19.70789 -19.68995 -19.62830 -19.62496
 Alpha  occ. eigenvalues --  -14.80178 -10.67222 -10.67023 -10.64619 -10.64166
 Alpha  occ. eigenvalues --  -10.60871 -10.60152 -10.59630 -10.59425 -10.57476
 Alpha  occ. eigenvalues --  -10.57139 -10.57105 -10.57019 -10.55155 -10.55063
 Alpha  occ. eigenvalues --   -8.26344  -6.18201  -6.17946  -6.17418  -1.25681
 Alpha  occ. eigenvalues --   -1.24479  -1.19038  -1.17257  -1.06105  -0.94600
 Alpha  occ. eigenvalues --   -0.93113  -0.90627  -0.89964  -0.89471  -0.84055
 Alpha  occ. eigenvalues --   -0.78797  -0.76134  -0.71953  -0.70118  -0.69342
 Alpha  occ. eigenvalues --   -0.68731  -0.67908  -0.66029  -0.63552  -0.62016
 Alpha  occ. eigenvalues --   -0.60142  -0.59327  -0.57101  -0.54962  -0.54640
 Alpha  occ. eigenvalues --   -0.53591  -0.53060  -0.51856  -0.51004  -0.50502
 Alpha  occ. eigenvalues --   -0.50239  -0.49453  -0.48684  -0.48390  -0.47353
 Alpha  occ. eigenvalues --   -0.47202  -0.46920  -0.46327  -0.45449  -0.44796
 Alpha  occ. eigenvalues --   -0.42791  -0.38453  -0.37598  -0.35665  -0.34585
 Alpha  occ. eigenvalues --   -0.34192  -0.34035  -0.32090  -0.30526  -0.28279
 Alpha  occ. eigenvalues --   -0.27754
 Alpha virt. eigenvalues --    0.00640   0.02318   0.02894   0.04956   0.06784
 Alpha virt. eigenvalues --    0.08889   0.09822   0.09950   0.11007   0.11804
 Alpha virt. eigenvalues --    0.12333   0.13311   0.14217   0.14740   0.14966
 Alpha virt. eigenvalues --    0.15464   0.16321   0.16541   0.17008   0.18979
 Alpha virt. eigenvalues --    0.20063   0.20272   0.21915   0.22461   0.23040
 Alpha virt. eigenvalues --    0.23386   0.24724   0.25253   0.26980   0.28121
 Alpha virt. eigenvalues --    0.29328   0.31546   0.34696   0.35802   0.36624
 Alpha virt. eigenvalues --    0.38062   0.38428   0.40161   0.42352   0.43405
 Alpha virt. eigenvalues --    0.43853   0.44530   0.45483   0.46208   0.47755
 Alpha virt. eigenvalues --    0.48158   0.48572   0.49566   0.50167   0.50671
 Alpha virt. eigenvalues --    0.51767   0.52075   0.52444   0.52987   0.53131
 Alpha virt. eigenvalues --    0.53279   0.54581   0.55400   0.55471   0.56558
 Alpha virt. eigenvalues --    0.56853   0.58647   0.58667   0.59067   0.60253
 Alpha virt. eigenvalues --    0.62723   0.63130   0.63773   0.64409   0.64945
 Alpha virt. eigenvalues --    0.65820   0.66160   0.66290   0.66969   0.67986
 Alpha virt. eigenvalues --    0.68663   0.69442   0.69546   0.70702   0.71121
 Alpha virt. eigenvalues --    0.71684   0.72193   0.72634   0.72771   0.73082
 Alpha virt. eigenvalues --    0.73890   0.74449   0.75375   0.75990   0.76431
 Alpha virt. eigenvalues --    0.77433   0.78483   0.79052   0.80563   0.82614
 Alpha virt. eigenvalues --    0.85420   0.86624   0.87705   0.88878   0.89722
 Alpha virt. eigenvalues --    0.92203   0.93188   0.93861   0.95456   0.95976
 Alpha virt. eigenvalues --    0.97084   0.97876   0.99975   1.00726   1.01577
 Alpha virt. eigenvalues --    1.02356   1.03802   1.04184   1.04716   1.05889
 Alpha virt. eigenvalues --    1.07810   1.09148   1.09923   1.10297   1.11118
 Alpha virt. eigenvalues --    1.11339   1.12213   1.13448   1.14243   1.15667
 Alpha virt. eigenvalues --    1.15874   1.16162   1.16928   1.19436   1.20114
 Alpha virt. eigenvalues --    1.22029   1.24273   1.26090   1.27507   1.28090
 Alpha virt. eigenvalues --    1.29610   1.30154   1.32012   1.32110   1.33233
 Alpha virt. eigenvalues --    1.33872   1.35762   1.37492   1.38907   1.40998
 Alpha virt. eigenvalues --    1.42526   1.43650   1.45995   1.47070   1.48952
 Alpha virt. eigenvalues --    1.50035   1.50976   1.52686   1.52990   1.54190
 Alpha virt. eigenvalues --    1.55138   1.56243   1.56996   1.58219   1.58894
 Alpha virt. eigenvalues --    1.60053   1.60823   1.62664   1.63060   1.63382
 Alpha virt. eigenvalues --    1.64412   1.65532   1.67468   1.67774   1.68731
 Alpha virt. eigenvalues --    1.69612   1.69741   1.70512   1.71601   1.72253
 Alpha virt. eigenvalues --    1.73104   1.73375   1.73754   1.75310   1.76334
 Alpha virt. eigenvalues --    1.77151   1.78278   1.79259   1.80246   1.81153
 Alpha virt. eigenvalues --    1.81481   1.82529   1.83221   1.84883   1.85414
 Alpha virt. eigenvalues --    1.86693   1.87673   1.88108   1.89206   1.90328
 Alpha virt. eigenvalues --    1.91148   1.91669   1.92516   1.93428   1.94251
 Alpha virt. eigenvalues --    1.95188   1.96213   1.98186   1.99153   1.99697
 Alpha virt. eigenvalues --    2.02759   2.03636   2.04690   2.07012   2.08530
 Alpha virt. eigenvalues --    2.11392   2.13192   2.15063   2.16856   2.17475
 Alpha virt. eigenvalues --    2.18306   2.18709   2.20576   2.21403   2.24702
 Alpha virt. eigenvalues --    2.25401   2.26224   2.27072   2.29276   2.30213
 Alpha virt. eigenvalues --    2.30611   2.31850   2.34575   2.37588   2.39052
 Alpha virt. eigenvalues --    2.40035   2.42216   2.44283   2.44977   2.47281
 Alpha virt. eigenvalues --    2.48934   2.49330   2.50026   2.51678   2.53399
 Alpha virt. eigenvalues --    2.54023   2.56737   2.58289   2.61139   2.63569
 Alpha virt. eigenvalues --    2.64773   2.68339   2.69286   2.75122   2.76502
 Alpha virt. eigenvalues --    2.77790   2.80683   2.82698   2.93669   2.98462
 Alpha virt. eigenvalues --    3.01176   3.02157   3.11588   3.12441   3.16087
 Alpha virt. eigenvalues --    3.20568   3.23715   3.25011   3.27026   3.34095
 Alpha virt. eigenvalues --    3.38877   3.44096   3.44392   3.47020   3.47267
 Alpha virt. eigenvalues --    3.47712   3.56532   3.56998
          Condensed to atoms (all electrons):
               1          2          3          4          5          6
     1  C    5.358188   0.330904  -0.046628  -0.064860  -0.055824   0.000071
     2  C    0.330904   5.337991   0.226375  -0.066914  -0.055140  -0.002183
     3  C   -0.046628   0.226375   5.058504   0.392754  -0.032088  -0.037841
     4  C   -0.064860  -0.066914   0.392754   4.911384   0.607690   0.409427
     5  C   -0.055824  -0.055140  -0.032088   0.607690   4.809223  -0.038294
     6  H    0.000071  -0.002183  -0.037841   0.409427  -0.038294   0.627580
     7  H   -0.002765   0.000443   0.007916  -0.036745   0.405405  -0.005395
     8  C    0.240246  -0.054138  -0.189780  -0.032990   0.423059   0.009396
     9  H   -0.014718   0.003800   0.001425   0.007696  -0.035979  -0.000106
    10  C    0.265167  -0.037425   0.003341  -0.005158  -0.012987  -0.001102
    11  C   -0.028498   0.259071  -0.035144  -0.011279  -0.003038   0.009555
    12  O    0.004638  -0.083255  -0.002541  -0.003613   0.000473   0.000946
    13  O   -0.079517   0.004054   0.000161   0.000121  -0.003369   0.000000
    14  H    0.377554  -0.018188   0.000597   0.002405   0.000887   0.000043
    15  H   -0.025992   0.387138  -0.013356   0.004494   0.001635  -0.000281
    16  O   -0.081722  -0.088775   0.369793  -0.067937  -0.046284   0.002841
    17  N   -0.107412  -0.090569  -0.005479  -0.001783  -0.006985  -0.002263
    18  H    0.009852   0.009113  -0.000030   0.000044   0.000100   0.000181
    19  C    0.005569  -0.020341   0.430371  -0.086983   0.007803  -0.004173
    20  H    0.001356  -0.009462  -0.009985  -0.004390   0.000104   0.000293
    21  H    0.000446  -0.009378   0.009569   0.010195  -0.000263   0.000209
    22  S   -0.000106   0.004227  -0.062765  -0.000144   0.000248   0.003018
    23  C    0.000003  -0.000030   0.002862   0.000046   0.000002  -0.000031
    24  H    0.000000   0.000013   0.000257  -0.000040  -0.000001  -0.000025
    25  H   -0.000000  -0.000006   0.000472   0.000027   0.000000   0.000009
    26  C    0.000000   0.000001  -0.000074  -0.000003   0.000000   0.000000
    27  O   -0.000000  -0.000000   0.000000   0.000000  -0.000000   0.000000
    28  C   -0.000000   0.000000   0.000002  -0.000000   0.000000   0.000000
    29  C    0.000000  -0.000000   0.000000   0.000000   0.000000  -0.000000
    30  C   -0.000000   0.000000  -0.000000  -0.000000  -0.000000  -0.000000
    31  H    0.000000  -0.000000   0.000000   0.000000   0.000000   0.000000
    32  H    0.000000  -0.000000  -0.000000   0.000000   0.000000  -0.000000
    33  H    0.000000  -0.000000   0.000000  -0.000000   0.000000  -0.000000
               7          8          9         10         11         12
     1  C   -0.002765   0.240246  -0.014718   0.265167  -0.028498   0.004638
     2  C    0.000443  -0.054138   0.003800  -0.037425   0.259071  -0.083255
     3  C    0.007916  -0.189780   0.001425   0.003341  -0.035144  -0.002541
     4  C   -0.036745  -0.032990   0.007696  -0.005158  -0.011279  -0.003613
     5  C    0.405405   0.423059  -0.035979  -0.012987  -0.003038   0.000473
     6  H   -0.005395   0.009396  -0.000106  -0.001102   0.009555   0.000946
     7  H    0.623270  -0.037908  -0.002121   0.009233  -0.000657   0.000010
     8  C   -0.037908   4.781723   0.413088  -0.035230   0.004650  -0.000015
     9  H   -0.002121   0.413088   0.618776  -0.000517  -0.000320   0.000002
    10  C    0.009233  -0.035230  -0.000517   4.540387  -0.054052  -0.000311
    11  C   -0.000657   0.004650  -0.000320  -0.054052   4.549640   0.793648
    12  O    0.000010  -0.000015   0.000002  -0.000311   0.793648   7.587845
    13  O    0.001427  -0.000222   0.000989   0.813113   0.000311  -0.000009
    14  H   -0.000285  -0.007855  -0.008445  -0.017215   0.004912  -0.000049
    15  H    0.000045   0.001089   0.000040   0.004942  -0.021904  -0.000115
    16  O    0.002938   0.375774  -0.016492   0.002335   0.002403   0.000013
    17  N   -0.001799  -0.002038  -0.000062   0.339597   0.348769  -0.071058
    18  H    0.000032  -0.000029   0.000002  -0.016944  -0.016095   0.003439
    19  C   -0.000209   0.003283  -0.000491  -0.000149  -0.005745  -0.003288
    20  H    0.000001   0.000053   0.000016  -0.000053   0.002407   0.019016
    21  H    0.000005   0.000057  -0.000028   0.000005   0.000314  -0.000041
    22  S    0.000002  -0.000016   0.000018   0.000002   0.000026   0.000015
    23  C   -0.000000   0.000002  -0.000000  -0.000000   0.000002   0.000001
    24  H    0.000000   0.000001   0.000000   0.000000  -0.000009  -0.000031
    25  H    0.000000   0.000000   0.000000  -0.000000  -0.000003   0.000001
    26  C   -0.000000  -0.000000   0.000000  -0.000000  -0.000000  -0.000000
    27  O   -0.000000   0.000000   0.000000   0.000000   0.000000   0.000000
    28  C   -0.000000   0.000000   0.000000  -0.000000  -0.000000   0.000000
    29  C   -0.000000  -0.000000  -0.000000  -0.000000  -0.000000  -0.000000
    30  C    0.000000   0.000000  -0.000000   0.000000   0.000000   0.000000
    31  H   -0.000000  -0.000000  -0.000000  -0.000000  -0.000000   0.000000
    32  H   -0.000000  -0.000000  -0.000000   0.000000  -0.000000  -0.000000
    33  H    0.000000  -0.000000  -0.000000   0.000000   0.000000   0.000000
              13         14         15         16         17         18
     1  C   -0.079517   0.377554  -0.025992  -0.081722  -0.107412   0.009852
     2  C    0.004054  -0.018188   0.387138  -0.088775  -0.090569   0.009113
     3  C    0.000161   0.000597  -0.013356   0.369793  -0.005479  -0.000030
     4  C    0.000121   0.002405   0.004494  -0.067937  -0.001783   0.000044
     5  C   -0.003369   0.000887   0.001635  -0.046284  -0.006985   0.000100
     6  H    0.000000   0.000043  -0.000281   0.002841  -0.002263   0.000181
     7  H    0.001427  -0.000285   0.000045   0.002938  -0.001799   0.000032
     8  C   -0.000222  -0.007855   0.001089   0.375774  -0.002038  -0.000029
     9  H    0.000989  -0.008445   0.000040  -0.016492  -0.000062   0.000002
    10  C    0.813113  -0.017215   0.004942   0.002335   0.339597  -0.016944
    11  C    0.000311   0.004912  -0.021904   0.002403   0.348769  -0.016095
    12  O   -0.000009  -0.000049  -0.000115   0.000013  -0.071058   0.003439
    13  O    7.574106   0.000418  -0.000058   0.000010  -0.076806   0.003639
    14  H    0.000418   0.626575  -0.007568  -0.001821   0.003298  -0.000113
    15  H   -0.000058  -0.007568   0.641234  -0.003120   0.003147  -0.000107
    16  O    0.000010  -0.001821  -0.003120   7.779989   0.000174   0.000018
    17  N   -0.076806   0.003298   0.003147   0.000174   6.476335   0.344321
    18  H    0.003639  -0.000113  -0.000107   0.000018   0.344321   0.543498
    19  C    0.000002  -0.000055  -0.005408  -0.032995   0.000103  -0.000023
    20  H    0.000000  -0.000046  -0.001682   0.002452   0.000579  -0.000035
    21  H    0.000000  -0.000009   0.006099   0.002038  -0.000034   0.000000
    22  S   -0.000000   0.000003   0.000484   0.001079  -0.000002  -0.000001
    23  C    0.000000  -0.000000  -0.000023   0.000013   0.000000  -0.000000
    24  H   -0.000000  -0.000000  -0.000013  -0.000001  -0.000000   0.000000
    25  H    0.000000   0.000000   0.000028  -0.000005  -0.000000  -0.000000
    26  C    0.000000   0.000000   0.000001   0.000001  -0.000000  -0.000000
    27  O    0.000000  -0.000000   0.000000  -0.000000  -0.000000  -0.000000
    28  C    0.000000   0.000000   0.000000   0.000000  -0.000000   0.000000
    29  C    0.000000  -0.000000   0.000000   0.000000   0.000000  -0.000000
    30  C   -0.000000  -0.000000   0.000000  -0.000000   0.000000  -0.000000
    31  H    0.000000   0.000000   0.000000   0.000000  -0.000000  -0.000000
    32  H    0.000000  -0.000000  -0.000000   0.000000  -0.000000  -0.000000
    33  H    0.000000  -0.000000  -0.000000   0.000000   0.000000  -0.000000
              19         20         21         22         23         24
     1  C    0.005569   0.001356   0.000446  -0.000106   0.000003   0.000000
     2  C   -0.020341  -0.009462  -0.009378   0.004227  -0.000030   0.000013
     3  C    0.430371  -0.009985   0.009569  -0.062765   0.002862   0.000257
     4  C   -0.086983  -0.004390   0.010195  -0.000144   0.000046  -0.000040
     5  C    0.007803   0.000104  -0.000263   0.000248   0.000002  -0.000001
     6  H   -0.004173   0.000293   0.000209   0.003018  -0.000031  -0.000025
     7  H   -0.000209   0.000001   0.000005   0.000002  -0.000000   0.000000
     8  C    0.003283   0.000053   0.000057  -0.000016   0.000002   0.000001
     9  H   -0.000491   0.000016  -0.000028   0.000018  -0.000000   0.000000
    10  C   -0.000149  -0.000053   0.000005   0.000002  -0.000000   0.000000
    11  C   -0.005745   0.002407   0.000314   0.000026   0.000002  -0.000009
    12  O   -0.003288   0.019016  -0.000041   0.000015   0.000001  -0.000031
    13  O    0.000002   0.000000   0.000000  -0.000000   0.000000  -0.000000
    14  H   -0.000055  -0.000046  -0.000009   0.000003  -0.000000  -0.000000
    15  H   -0.005408  -0.001682   0.006099   0.000484  -0.000023  -0.000013
    16  O   -0.032995   0.002452   0.002038   0.001079   0.000013  -0.000001
    17  N    0.000103   0.000579  -0.000034  -0.000002   0.000000  -0.000000
    18  H   -0.000023  -0.000035   0.000000  -0.000001  -0.000000   0.000000
    19  C    4.805645   0.366282   0.347099   0.284906  -0.024292  -0.003392
    20  H    0.366282   0.607039  -0.027626  -0.040096  -0.003096   0.005947
    21  H    0.347099  -0.027626   0.621754  -0.042611  -0.004754  -0.001297
    22  S    0.284906  -0.040096  -0.042611  15.691820   0.289691  -0.042914
    23  C   -0.024292  -0.003096  -0.004754   0.289691   4.795714   0.375413
    24  H   -0.003392   0.005947  -0.001297  -0.042914   0.375413   0.619972
    25  H   -0.003878  -0.001806   0.006562  -0.045817   0.352824  -0.029311
    26  C    0.002673   0.000472   0.000123  -0.066256   0.422056  -0.006076
    27  O    0.000014  -0.000002  -0.000002   0.001035  -0.043454   0.002282
    28  C   -0.000024   0.000004   0.000000  -0.000679  -0.080010  -0.004795
    29  C   -0.000003   0.000001  -0.000000   0.000431   0.002451   0.000132
    30  C    0.000002  -0.000000  -0.000000  -0.000243   0.007817   0.000011
    31  H   -0.000010  -0.000000   0.000001   0.000360  -0.005762   0.001650
    32  H   -0.000000   0.000000  -0.000000   0.000029  -0.000675   0.000020
    33  H   -0.000000  -0.000000   0.000000   0.000004  -0.000173  -0.000015
              25         26         27         28         29         30
     1  C   -0.000000   0.000000  -0.000000  -0.000000   0.000000  -0.000000
     2  C   -0.000006   0.000001  -0.000000   0.000000  -0.000000   0.000000
     3  C    0.000472  -0.000074   0.000000   0.000002   0.000000  -0.000000
     4  C    0.000027  -0.000003   0.000000  -0.000000   0.000000  -0.000000
     5  C    0.000000   0.000000  -0.000000   0.000000   0.000000  -0.000000
     6  H    0.000009   0.000000   0.000000   0.000000  -0.000000  -0.000000
     7  H    0.000000  -0.000000  -0.000000  -0.000000  -0.000000   0.000000
     8  C    0.000000  -0.000000   0.000000   0.000000  -0.000000   0.000000
     9  H    0.000000   0.000000   0.000000   0.000000  -0.000000  -0.000000
    10  C   -0.000000  -0.000000   0.000000  -0.000000  -0.000000   0.000000
    11  C   -0.000003  -0.000000   0.000000  -0.000000  -0.000000   0.000000
    12  O    0.000001  -0.000000   0.000000   0.000000  -0.000000   0.000000
    13  O    0.000000   0.000000   0.000000   0.000000   0.000000  -0.000000
    14  H    0.000000   0.000000  -0.000000   0.000000  -0.000000  -0.000000
    15  H    0.000028   0.000001   0.000000   0.000000   0.000000   0.000000
    16  O   -0.000005   0.000001  -0.000000   0.000000   0.000000  -0.000000
    17  N   -0.000000  -0.000000  -0.000000  -0.000000   0.000000   0.000000
    18  H   -0.000000  -0.000000  -0.000000   0.000000  -0.000000  -0.000000
    19  C   -0.003878   0.002673   0.000014  -0.000024  -0.000003   0.000002
    20  H   -0.001806   0.000472  -0.000002   0.000004   0.000001  -0.000000
    21  H    0.006562   0.000123  -0.000002   0.000000  -0.000000  -0.000000
    22  S   -0.045817  -0.066256   0.001035  -0.000679   0.000431  -0.000243
    23  C    0.352824   0.422056  -0.043454  -0.080010   0.002451   0.007817
    24  H   -0.029311  -0.006076   0.002282  -0.004795   0.000132   0.000011
    25  H    0.629267   0.000408   0.001569   0.007004   0.000391  -0.000343
    26  C    0.000408   4.907878   0.406182   0.523049  -0.192721  -0.035269
    27  O    0.001569   0.406182   7.589333  -0.086280   0.396657  -0.062659
    28  C    0.007004   0.523049  -0.086280   4.885871  -0.029655   0.467947
    29  C    0.000391  -0.192721   0.396657  -0.029655   4.786390   0.552863
    30  C   -0.000343  -0.035269  -0.062659   0.467947   0.552863   4.773198
    31  H    0.000110  -0.041279   0.003416   0.412743   0.011232  -0.045063
    32  H   -0.000025  -0.000588  -0.021567   0.008413   0.417907  -0.045525
    33  H    0.000005   0.010415   0.003536  -0.043258  -0.045442   0.410224
              31         32         33
     1  C    0.000000   0.000000   0.000000
     2  C   -0.000000  -0.000000  -0.000000
     3  C    0.000000  -0.000000   0.000000
     4  C    0.000000   0.000000  -0.000000
     5  C    0.000000   0.000000   0.000000
     6  H    0.000000  -0.000000  -0.000000
     7  H   -0.000000  -0.000000   0.000000
     8  C   -0.000000  -0.000000  -0.000000
     9  H   -0.000000  -0.000000  -0.000000
    10  C   -0.000000   0.000000   0.000000
    11  C   -0.000000  -0.000000   0.000000
    12  O    0.000000  -0.000000   0.000000
    13  O    0.000000   0.000000   0.000000
    14  H    0.000000  -0.000000  -0.000000
    15  H    0.000000  -0.000000  -0.000000
    16  O    0.000000   0.000000   0.000000
    17  N   -0.000000  -0.000000   0.000000
    18  H   -0.000000  -0.000000  -0.000000
    19  C   -0.000010  -0.000000  -0.000000
    20  H   -0.000000   0.000000  -0.000000
    21  H    0.000001  -0.000000   0.000000
    22  S    0.000360   0.000029   0.000004
    23  C   -0.005762  -0.000675  -0.000173
    24  H    0.001650   0.000020  -0.000015
    25  H    0.000110  -0.000025   0.000005
    26  C   -0.041279  -0.000588   0.010415
    27  O    0.003416  -0.021567   0.003536
    28  C    0.412743   0.008413  -0.043258
    29  C    0.011232   0.417907  -0.045442
    30  C   -0.045063  -0.045525   0.410224
    31  H    0.664439  -0.000070  -0.005780
    32  H   -0.000070   0.626020  -0.003261
    33  H   -0.005780  -0.003261   0.661317
 Mulliken charges:
               1
     1  C   -0.085951
     2  C   -0.027326
     3  C   -0.068687
     4  C    0.036557
     5  C    0.033623
     6  H    0.028124
     7  H    0.037157
     8  C    0.107800
     9  H    0.033427
    10  C    0.203020
    11  C    0.201037
    12  O   -0.245721
    13  O   -0.238370
    14  H    0.044956
    15  H    0.029251
    16  O   -0.202718
    17  N   -0.150033
    18  H    0.119137
    19  C   -0.062292
    20  H    0.092260
    21  H    0.081569
    22  S    0.024252
    23  C   -0.086597
    24  H    0.082221
    25  H    0.082516
    26  C    0.069007
    27  O   -0.190060
    28  C   -0.060330
    29  C    0.099367
    30  C   -0.022960
    31  H    0.004012
    32  H    0.019322
    33  H    0.012429
 Sum of Mulliken charges =  -0.00000
 Mulliken charges with hydrogens summed into heavy atoms:
               1
     1  C   -0.040995
     2  C    0.001926
     3  C   -0.068687
     4  C    0.064681
     5  C    0.070780
     8  C    0.141227
    10  C    0.203020
    11  C    0.201037
    12  O   -0.245721
    13  O   -0.238370
    16  O   -0.202718
    17  N   -0.030895
    19  C    0.111537
    22  S    0.024252
    23  C    0.078140
    26  C    0.069007
    27  O   -0.190060
    28  C   -0.056318
    29  C    0.118689
    30  C   -0.010531
 APT charges:
               1
     1  C   -0.529682
     2  C   -0.242213
     3  C   -0.181173
     4  C   -0.546399
     5  C   -0.073478
     6  H    0.248408
     7  H    0.744868
     8  C   -0.681934
     9  H    0.798124
    10  C   -1.892493
    11  C   -0.513852
    12  O    0.020960
    13  O    1.655203
    14  H    0.570522
    15  H    0.086427
    16  O   -0.059556
    17  N   -0.464710
    18  H    0.902527
    19  C   -0.453217
    20  H    0.248452
    21  H    0.340494
    22  S    0.049052
    23  C   -0.677913
    24  H    0.214397
    25  H    0.269760
    26  C   -0.307143
    27  O   -0.539895
    28  C   -0.340502
    29  C   -0.918975
    30  C   -0.299655
    31  H    0.252227
    32  H    1.064188
    33  H    1.257182
 Sum of APT charges =  -0.00000
 APT charges with hydrogens summed into heavy atoms:
               1
     1  C    0.040840
     2  C   -0.155786
     3  C   -0.181173
     4  C   -0.297991
     5  C    0.671390
     8  C    0.116190
    10  C   -1.892493
    11  C   -0.513852
    12  O    0.020960
    13  O    1.655203
    16  O   -0.059556
    17  N    0.437817
    19  C    0.135729
    22  S    0.049052
    23  C   -0.193756
    26  C   -0.307143
    27  O   -0.539895
    28  C   -0.088275
    29  C    0.145213
    30  C    0.957526
 Electronic spatial extent (au):  <R**2>=           8268.9048
 Charge=             -0.0000 electrons
 Dipole moment (field-independent basis, Debye):
    X=             -1.6263    Y=             -0.2794    Z=             -0.2306  Tot=              1.6661
 Quadrupole moment (field-independent basis, Debye-Ang):
   XX=           -124.9026   YY=           -123.4456   ZZ=           -116.4078
   XY=             -2.7821   XZ=             -0.1900   YZ=              3.7895
 Traceless Quadrupole moment (field-independent basis, Debye-Ang):
   XX=             -3.3173   YY=             -1.8602   ZZ=              5.1775
   XY=             -2.7821   XZ=             -0.1900   YZ=              3.7895
 Octapole moment (field-independent basis, Debye-Ang**2):
  XXX=           -193.3224  YYY=            -30.0406  ZZZ=             -3.5919  XYY=              7.8115
  XXY=              3.0642  XXZ=             18.7311  XZZ=             21.3571  YZZ=              6.0305
  YYZ=              6.5311  XYZ=              3.0772
 Hexadecapole moment (field-independent basis, Debye-Ang**3):
 XXXX=          -9609.6949 YYYY=           -977.7353 ZZZZ=           -482.7245 XXXY=            377.3961
 XXXZ=           -189.4523 YYYX=            -41.8268 YYYZ=             31.6751 ZZZX=             53.5182
 ZZZY=             16.1186 XXYY=          -1598.0715 XXZZ=          -1613.4177 YYZZ=           -232.6077
 XXYZ=            121.9486 YYXZ=             21.3063 ZZXY=             -0.2322
 N-N= 1.654224946349D+03 E-N=-6.347024309707D+03  KE= 1.289198861277D+03
  Exact polarizability:   0.000   0.000   0.000   0.000   0.000   0.000
 Approx polarizability: 260.239 -17.648 221.640  -8.368   6.449 188.283
 Calling FoFJK, ICntrl=    100147 FMM=F ISym2X=0 I1Cent= 0 IOpClX= 0 NMat=1 NMatS=1 NMatT=0.
 ***** Axes restored to original set *****
 -------------------------------------------------------------------
 Center     Atomic                   Forces (Hartrees/Bohr)
 Number     Number              X              Y              Z
 -------------------------------------------------------------------
      1        6           0.032330893   -0.027348174    0.006160692
      2        6          -0.026175934    0.021761250    0.002976249
      3        6           0.016479321    0.014551134   -0.022648710
      4        6           0.003078859   -0.020974669    0.027382452
      5        6          -0.023745422    0.007606174    0.023911369
      6        1           0.000402837   -0.000375892    0.000298901
      7        1          -0.000251310    0.000552975    0.000144566
      8        6           0.014915372    0.019416164   -0.022046647
      9        1          -0.001661072   -0.001767517    0.002528442
     10        6           0.008959254    0.007159915   -0.009564300
     11        6           0.009754314    0.008078559   -0.008055786
     12        8          -0.001129338   -0.000749114    0.001342331
     13        8          -0.000771357   -0.001023727    0.001963452
     14        1           0.005588045    0.008655352   -0.005172759
     15        1           0.008454493    0.003976376   -0.004031409
     16        8          -0.039209319   -0.037409108    0.002562595
     17        7           0.000403955    0.000674657   -0.002756555
     18        1          -0.000141400   -0.000005189    0.000628755
     19        6          -0.007911904   -0.002243040    0.004283265
     20        1           0.000284542   -0.000123521    0.000356343
     21        1           0.000176407   -0.000612250    0.000076273
     22       16           0.000151631    0.000121514   -0.000478680
     23        6           0.000134186    0.000027860    0.000200040
     24        1          -0.000030765    0.000005384   -0.000009701
     25        1          -0.000008006   -0.000013844   -0.000004156
     26        6          -0.000092687    0.000000663   -0.000048298
     27        8           0.000030927    0.000071652    0.000021533
     28        6           0.000004696    0.000011163   -0.000056396
     29        6          -0.000060621   -0.000025062    0.000002955
     30        6           0.000016732    0.000010168    0.000008970
     31        1           0.000009784   -0.000013711   -0.000001498
     32        1           0.000014570    0.000008604    0.000017951
     33        1          -0.000001683   -0.000004747    0.000007762
 -------------------------------------------------------------------
 Cartesian Forces:  Max     0.039209319 RMS     0.010645398
 FormGI is forming the generalized inverse of G from B-inverse, IUseBI=4.

 GradGradGradGradGradGradGradGradGradGradGradGradGradGradGradGradGradGrad
 Berny optimization.
 Internal  Forces:  Max     0.028365649 RMS     0.005302906
 Search for a saddle point.
 Step number   1 out of a maximum of  198
 All quantities printed in internal units (Hartrees-Bohrs-Radians)
 Swapping is turned off.
 Second derivative matrix not updated -- analytic derivatives used.
 ITU=  0
     Eigenvalues ---   -0.02741   0.00107   0.00194   0.00301   0.00345
     Eigenvalues ---    0.00499   0.00560   0.00898   0.01144   0.01223
     Eigenvalues ---    0.01270   0.01293   0.01308   0.01553   0.01766
     Eigenvalues ---    0.02317   0.02423   0.02603   0.02898   0.03747
     Eigenvalues ---    0.04104   0.04176   0.04209   0.04476   0.04578
     Eigenvalues ---    0.04698   0.04733   0.05044   0.05141   0.05526
     Eigenvalues ---    0.05731   0.05750   0.07036   0.08042   0.08598
     Eigenvalues ---    0.08680   0.08857   0.08921   0.09113   0.09310
     Eigenvalues ---    0.09764   0.09767   0.10718   0.11035   0.11125
     Eigenvalues ---    0.12651   0.14255   0.14712   0.15340   0.15874
     Eigenvalues ---    0.16347   0.17720   0.18787   0.19604   0.19954
     Eigenvalues ---    0.21079   0.21636   0.21689   0.24231   0.25386
     Eigenvalues ---    0.25593   0.26956   0.28199   0.30736   0.31467
     Eigenvalues ---    0.33207   0.33744   0.33946   0.34178   0.34395
     Eigenvalues ---    0.34689   0.34906   0.35440   0.35960   0.36181
     Eigenvalues ---    0.36829   0.36916   0.37541   0.37700   0.37769
     Eigenvalues ---    0.38034   0.38144   0.38424   0.38580   0.40254
     Eigenvalues ---    0.42065   0.45062   0.47497   0.49418   0.49690
     Eigenvalues ---    0.57949   0.90339   0.92337
 Eigenvectors required to have negative eigenvalues:
                          R2        R5        D69       D47       D8
   1                    0.50721   0.44319  -0.20039   0.18700  -0.18341
                          D6        D24       D23       D64       D38
   1                    0.16348   0.15414   0.15078   0.14497  -0.14177
 RFO step:  Lambda0=8.446866482D-03 Lambda=-1.93997347D-02.
 Linear search not attempted -- option 19 set.
 Maximum step size (   0.300) exceeded in Quadratic search.
    -- Step size scaled by   0.566
 Iteration  1 RMS(Cart)=  0.02788696 RMS(Int)=  0.00088740
 Iteration  2 RMS(Cart)=  0.00152133 RMS(Int)=  0.00014321
 Iteration  3 RMS(Cart)=  0.00000067 RMS(Int)=  0.00014321
 Variable       Old X    -DE/DX   Delta X   Delta X   Delta X     New X
                                 (Linear)    (Quad)   (Total)
    R1        2.65358   0.02837   0.00000  -0.00130  -0.00052   2.65306
    R2        3.56299   0.01759   0.00000   0.20866   0.20881   3.77180
    R3        2.83113   0.00134   0.00000  -0.00528  -0.00524   2.82589
    R4        2.05516   0.00010   0.00000  -0.00164  -0.00164   2.05352
    R5        3.51565   0.02398   0.00000   0.20918   0.20930   3.72495
    R6        2.81766   0.00246   0.00000  -0.00413  -0.00414   2.81353
    R7        2.05592  -0.00045   0.00000  -0.00153  -0.00153   2.05440
    R8        2.69382   0.02114   0.00000  -0.00156  -0.00164   2.69218
    R9        2.58242   0.01012   0.00000  -0.00380  -0.00416   2.57826
   R10        2.81575   0.00313   0.00000  -0.00057  -0.00057   2.81519
   R11        2.59503  -0.01632   0.00000  -0.00151  -0.00176   2.59327
   R12        2.05389  -0.00017   0.00000  -0.00019  -0.00019   2.05370
   R13        2.05320  -0.00015   0.00000  -0.00015  -0.00015   2.05305
   R14        2.68606   0.02243   0.00000  -0.00183  -0.00189   2.68416
   R15        2.05345   0.00020   0.00000  -0.00052  -0.00052   2.05293
   R16        2.57054   0.01204   0.00000  -0.00497  -0.00534   2.56520
   R17        2.27856   0.00040   0.00000   0.00066   0.00066   2.27922
   R18        2.64128   0.00183   0.00000   0.00128   0.00124   2.64252
   R19        2.28401   0.00010   0.00000   0.00089   0.00089   2.28491
   R20        2.63389   0.00128   0.00000   0.00015   0.00009   2.63398
   R21        1.91523   0.00038   0.00000  -0.00009  -0.00009   1.91514
   R22        2.08118  -0.00005   0.00000   0.00023   0.00023   2.08141
   R23        2.07747   0.00004   0.00000  -0.00013  -0.00013   2.07735
   R24        3.45836  -0.00036   0.00000   0.00021   0.00021   3.45857
   R25        3.47093  -0.00003   0.00000   0.00022   0.00022   3.47115
   R26        2.07543  -0.00000   0.00000  -0.00004  -0.00004   2.07539
   R27        2.07806   0.00001   0.00000  -0.00004  -0.00004   2.07802
   R28        2.80263   0.00005   0.00000  -0.00003  -0.00003   2.80260
   R29        2.56497  -0.00005   0.00000  -0.00008  -0.00008   2.56489
   R30        2.57584  -0.00004   0.00000  -0.00001  -0.00001   2.57583
   R31        2.55812   0.00005   0.00000   0.00009   0.00009   2.55821
   R32        2.71070  -0.00001   0.00000  -0.00007  -0.00007   2.71063
   R33        2.05146  -0.00001   0.00000  -0.00001  -0.00001   2.05145
   R34        2.56949  -0.00001   0.00000   0.00002   0.00002   2.56952
   R35        2.04911  -0.00002   0.00000  -0.00003  -0.00003   2.04908
   R36        2.05042   0.00001   0.00000   0.00000   0.00000   2.05042
    A1        1.78000  -0.00826   0.00000  -0.02287  -0.02240   1.75760
    A2        1.87615  -0.00285   0.00000   0.00187   0.00165   1.87779
    A3        2.18856   0.00302   0.00000   0.01098   0.01059   2.19915
    A4        1.83688   0.01108   0.00000  -0.00418  -0.00446   1.83241
    A5        1.61411   0.00361   0.00000  -0.00829  -0.00828   1.60583
    A6        2.07532  -0.00339   0.00000   0.00730   0.00714   2.08246
    A7        1.76135  -0.00214   0.00000  -0.00147  -0.00104   1.76031
    A8        1.89121  -0.00477   0.00000   0.00020   0.00012   1.89133
    A9        2.18768   0.00266   0.00000   0.00881   0.00862   2.19630
   A10        1.78920   0.01083   0.00000  -0.00991  -0.01010   1.77910
   A11        1.63799  -0.00009   0.00000  -0.01624  -0.01636   1.62163
   A12        2.08091  -0.00189   0.00000   0.00579   0.00559   2.08650
   A13        1.74299   0.00917   0.00000  -0.00248  -0.00259   1.74041
   A14        1.56278   0.00508   0.00000  -0.00355  -0.00382   1.55896
   A15        1.83038  -0.00291   0.00000  -0.01354  -0.01318   1.81720
   A16        1.88410   0.00125   0.00000   0.00338   0.00353   1.88763
   A17        2.22244  -0.00493   0.00000   0.00361   0.00336   2.22581
   A18        2.05684  -0.00146   0.00000   0.00384   0.00368   2.06053
   A19        1.85158   0.00043   0.00000  -0.00033  -0.00047   1.85110
   A20        2.17765   0.00075   0.00000   0.00010   0.00018   2.17782
   A21        2.24600  -0.00125   0.00000   0.00018   0.00022   2.24622
   A22        2.24302  -0.00133   0.00000   0.00061   0.00064   2.24366
   A23        1.84275   0.00142   0.00000   0.00028   0.00014   1.84290
   A24        2.18731  -0.00039   0.00000  -0.00053  -0.00046   2.18685
   A25        1.70601   0.01238   0.00000   0.00107   0.00090   1.70692
   A26        1.88365  -0.00653   0.00000  -0.02843  -0.02807   1.85558
   A27        1.55431   0.01067   0.00000   0.00789   0.00758   1.56189
   A28        2.23907  -0.00370   0.00000   0.00708   0.00676   2.24583
   A29        1.89590  -0.00097   0.00000   0.00374   0.00389   1.89979
   A30        2.01975  -0.00311   0.00000   0.00189   0.00177   2.02152
   A31        2.25432  -0.00035   0.00000   0.00247   0.00239   2.25671
   A32        1.84325   0.00125   0.00000  -0.00147  -0.00132   1.84193
   A33        2.18543  -0.00091   0.00000  -0.00108  -0.00115   2.18428
   A34        2.24639  -0.00112   0.00000   0.00070   0.00065   2.24704
   A35        1.84204   0.00194   0.00000  -0.00073  -0.00064   1.84140
   A36        2.19413  -0.00083   0.00000  -0.00008  -0.00013   2.19400
   A37        1.81668  -0.01081   0.00000   0.00274   0.00247   1.81915
   A38        1.96768   0.00443   0.00000   0.00011   0.00015   1.96783
   A39        2.15516  -0.00221   0.00000  -0.00011  -0.00013   2.15503
   A40        2.15951  -0.00221   0.00000   0.00004   0.00002   2.15953
[...]
 -0.00036195,0.00010856,-0.21891922,0.08026775,0.14134223,-0.01158348,0
 .01360598,0.02391663,0.53374859,-0.00000222,0.00000215,-0.00000974,0.0
 0000902,-0.00001007,0.00000733,0.00006080,-0.00004770,-0.00000641,-0.0
 0002922,0.00002301,0.00001317,-0.00000194,-0.00000434,-0.00002738,-0.0
 0000912,0.00000371,0.00000624,-0.00000360,0.00000438,0.00000066,0.0000
 0691,-0.00000291,0.00001389,-0.00000464,0.00000035,-0.00000206,-0.0000
 0443,0.00001475,0.00000855,-0.00000812,0.00002128,0.00000980,0.0000080
 7,-0.00001590,-0.00002174,0.00000355,-0.00000430,-0.00000320,0.0000002
 2,-0.00000151,0.00000083,0.00000213,-0.00000280,-0.00000006,-0.0000182
 3,0.00000652,-0.00001877,0.00000651,-0.00001242,-0.00000706,-0.0000040
 5,0.00000049,0.00000426,-0.00018982,0.00019929,0.00008247,0.00006186,0
 .00001865,0.00000344,0.00008674,-0.00003179,-0.00006061,-0.00055081,0.
 00020344,0.00018491,-0.00513627,0.00813339,0.00774600,0.00110921,0.000
 79203,-0.00021773,-0.00283229,0.00030542,0.00151570,0.09094658,-0.1513
 7710,-0.11742661,-0.02176082,-0.04838836,-0.04025252,0.09916518,0.6068
 1445,-0.00002243,-0.00001762,-0.00000310,-0.00009941,-0.00004370,-0.00
 001766,0.00016232,-0.00013672,0.00013258,-0.00007678,-0.00000552,-0.00
 003086,0.00000951,0.00000480,-0.00000294,0.00000670,0.00000878,0.00000
 360,0.00000155,0.00000208,-0.00000067,-0.00006601,0.00001979,-0.000034
 42,0.00000376,0.00000605,-0.00000734,0.00004091,0.00001204,0.00003002,
 0.00001344,0.00013249,0.00006257,0.00002163,-0.00008846,-0.00001692,-0
 .00003817,0.00000529,-0.00001815,-0.00000774,0.00000022,-0.00000248,0.
 00001691,0.00001296,-0.00002505,-0.00000730,-0.00000081,0.00002920,-0.
 00002405,-0.00001380,-0.00001573,0.00000442,0.00000948,-0.00000078,-0.
 00063075,0.00031986,0.00005712,-0.00001835,-0.00002339,-0.00000196,-0.
 00013884,-0.00002644,0.00001879,-0.00150532,0.00076921,-0.00076684,0.0
 0590582,-0.00056572,0.00190045,-0.00066095,-0.00009517,0.00008687,-0.0
 0042581,-0.00027285,0.00037559,0.15256574,-0.11143904,-0.23788385,-0.0
 0405153,-0.05758673,-0.03246280,-0.13006028,0.35271586,0.48160140,-0.0
 0006798,0.00006113,-0.00003107,-0.00001197,-0.00003556,-0.00011768,-0.
 00009560,-0.00032764,0.00037863,-0.00014493,-0.00001948,0.00005882,0.0
 0004199,0.00002869,-0.00001749,0.00001384,0.00000112,0.00002274,-0.000
 00686,0.00000213,0.00000128,-0.00024082,0.00003786,-0.00003586,0.00001
 129,0.00002118,-0.00002735,0.00011984,-0.00002378,0.00007364,0.0001010
 4,0.00011680,0.00012469,-0.00002927,-0.00008124,-0.00001888,-0.0001100
 6,0.00003739,-0.00005209,-0.00003024,-0.00001319,-0.00000188,0.0000219
 5,0.00000315,-0.00003523,-0.00000019,-0.00003215,0.00004710,-0.0000880
 8,0.00002712,-0.00003422,0.00001213,0.00001467,0.00000249,-0.00077203,
 0.00133895,-0.00062436,0.00020691,0.00001287,-0.00006867,-0.00011293,-
 0.00009046,0.00006778,-0.00218569,-0.00078410,0.00031779,0.00547096,0.
 00246657,-0.00060306,0.00012736,0.00031374,0.00070790,-0.00218336,-0.0
 0098948,0.00096157,-0.08172151,-0.06594611,-0.00166267,-0.25420035,-0.
 02857599,0.07358540,0.01226580,-0.00622569,-0.00587921,0.57137877,-0.0
 0002496,-0.00000975,-0.00001139,0.00000156,-0.00000737,-0.00002143,0.0
 0004924,-0.00001367,0.00008564,-0.00002151,-0.00000462,0.00001359,-0.0
 0000344,0.00002152,-0.00000928,0.00000520,-0.00000541,0.00001314,-0.00
 000521,0.00000082,0.00000229,-0.00000322,0.00001307,0.00000139,-0.0000
 0083,0.00000265,-0.00000335,0.00006312,-0.00000886,0.00003527,0.000063
 33,0.00000259,0.00003952,-0.00004145,-0.00000734,-0.00000841,-0.000052
 30,0.00001418,-0.00002556,-0.00000270,-0.00000096,-0.00000148,0.000012
 80,0.00000357,-0.00001402,-0.00006609,0.00000237,-0.00002911,-0.000044
 98,0.00001189,-0.00002421,0.00000598,0.00000674,0.00000468,-0.00001797
 ,0.00033198,0.00008460,0.00012272,0.00001229,-0.00003361,-0.00006356,-
 0.00003121,0.00000585,0.00025276,-0.00045316,0.00032842,-0.00206838,-0
 .00381128,-0.00381552,-0.00116529,0.00010180,0.00021922,0.00022701,-0.
 00012491,0.00005211,-0.04420983,-0.03304424,-0.01683314,0.00243882,-0.
 08382798,-0.01667835,-0.05391881,-0.03524525,-0.01114895,0.19660525,0.
 65638385,0.00001623,-0.00002672,0.00000613,0.00002618,0.00001313,0.000
 04974,0.00007904,0.00018222,-0.00016605,0.00006106,0.00001272,-0.00002
 655,-0.00001662,-0.00001485,-0.00000106,-0.00000131,-0.00000355,-0.000
 00299,0.00000150,0.,0.00000050,0.00013296,-0.00001565,0.00003295,-0.00
 000689,-0.00000998,0.00001356,-0.00001896,0.00000613,-0.00001426,-0.00
 000582,-0.00007607,-0.00004563,-0.00002032,0.00004646,0.00000714,0.000
 02222,-0.00001025,0.00001088,0.00001387,0.00000520,0.00000044,-0.00000
 829,-0.00000298,0.00001320,-0.00004554,0.00002308,-0.00004806,0.000015
 71,-0.00000431,0.00000457,-0.00000153,-0.00000312,0.00000150,0.0004588
 0,-0.00061176,0.00035058,-0.00002510,0.00001257,0.00002270,0.00004103,
 0.00004705,-0.00003877,0.00140732,0.00034218,0.00001622,-0.00271317,-0
 .00628511,-0.00122528,-0.00112857,-0.00012398,0.00020668,0.00124626,0.
 00062877,-0.00023469,0.01291044,-0.00543843,0.00138922,0.09933813,0.00
 016203,-0.11790124,-0.04425520,-0.03623756,0.00606967,-0.06635278,0.33
 745265,0.44308492,-0.00004007,0.00000159,-0.00002180,-0.00002478,-0.00
 003825,-0.00003318,0.00011460,-0.00009733,0.00011391,-0.00009682,0.000
 02386,0.00001292,0.00000869,-0.00001272,-0.00003243,0.00000385,0.00000
 722,0.00001394,-0.00000419,0.00000455,0.00000081,-0.00002824,0.0000161
 2,0.00002125,0.00000409,0.00000675,-0.00000935,0.00007383,0.00001539,0
 .00005762,0.00004048,0.00011458,0.00007787,-0.00000185,-0.00008153,-0.
 00003067,-0.00006249,0.00000944,-0.00003374,-0.00000721,-0.00000334,-0
 .00000204,0.00001784,0.00000800,-0.00001995,-0.00006369,-0.00002559,-0
 .00003038,-0.00004119,-0.00001566,-0.00003295,0.00000513,0.00001128,0.
 00000484,-0.00026629,0.00002687,-0.00040199,-0.00003625,0.00001199,0.0
 0003421,0.00010147,-0.00000331,-0.00001891,-0.00042151,-0.00025460,-0.
 00001132,0.00192792,0.00145273,0.00411064,-0.00007161,-0.00039484,-0.0
 0028630,-0.00149619,-0.00002522,0.00005149,-0.04934737,0.02103120,0.04
 902502,-0.04467993,-0.00450375,0.02735325,-0.23084513,-0.10586447,0.00
 106228,-0.10216240,0.03790293,0.04976815,0.67853714,-0.00004679,0.0000
 2284,-0.00002128,-0.00004146,-0.00003354,-0.00006936,0.00001121,-0.000
 20673,0.00027337,-0.00011023,-0.00000879,0.00002244,0.00002723,0.00000
 990,-0.00001531,0.00000417,-0.00000002,0.00001587,-0.00000565,0.000000
 32,0.00000149,-0.00012925,0.00002560,-0.00000788,0.00000974,0.00001265
 ,-0.00001628,0.00009151,-0.00001704,0.00005672,0.00007424,0.00009714,0
 .00009644,-0.00001452,-0.00006199,-0.00002111,-0.00008235,0.00002689,-
 0.00004200,-0.00001619,-0.00000612,-0.00000142,0.00001728,0.00000761,-
 0.00002502,-0.00001463,-0.00003687,0.00000850,-0.00006780,0.00001599,-
 0.00003291,0.00000766,0.00000999,0.00000476,-0.00057794,0.00050252,-0.
 00067136,0.00000544,-0.00001154,0.00000571,0.00000029,-0.00000715,0.00
 004982,-0.00198425,0.00018504,0.00013815,0.00295507,0.00130017,-0.0045
 9296,-0.00016670,-0.00012418,0.00035210,0.00012101,-0.00025451,-0.0001
 8252,-0.02568642,0.02468607,0.02663100,0.03142440,-0.01271710,-0.03828
 595,-0.08138655,-0.14277253,-0.02846935,0.02559244,-0.27588582,-0.1880
 8611,0.02722544,0.46591109,-0.00000949,0.00001906,-0.00000198,-0.00000
 194,-0.00000808,-0.00001075,0.00002485,-0.00000976,0.00001772,-0.00003
 291,-0.00000899,-0.00001068,0.00001795,-0.00001518,0.00000552,0.000015
 02,0.00000483,-0.00000263,0.00000430,-0.00000077,-0.00000144,-0.000038
 80,-0.00000359,-0.00000669,0.00000421,0.00000307,-0.00000273,0.0000225
 6,-0.00001226,0.00000648,0.00001706,0.00000552,0.00000924,-0.00000686,
 -0.00000349,0.00001092,-0.00001969,0.00000832,-0.00000442,-0.00000575,
 -0.00000310,0.00000029,0.00000090,-0.00000127,-0.00000393,0.00001693,0
 .00000656,0.00003656,-0.00001609,0.00001105,0.00000341,0.00000522,0.00
 000241,-0.00000383,0.00000361,0.00010154,0.00010169,0.00001147,-0.0000
 0036,-0.00002365,-0.00007034,-0.00003710,0.00004074,-0.00043176,0.0001
 3640,-0.00080345,0.00457254,-0.00283512,0.00029323,0.00005872,-0.00026
 948,-0.00004891,-0.00054096,-0.00006205,0.00028361,0.00986388,-0.00013
 235,0.00754638,0.05666578,-0.01989082,-0.03160166,0.02190796,-0.015046
 39,-0.08281817,0.03957430,-0.19395308,-0.24754053,-0.26581603,0.271906
 93,0.48349403,0.00001507,0.00000112,0.00000323,-0.00000277,0.00000306,
 0.00000558,-0.00006150,0.00001194,0.00000275,0.00002486,0.00000359,0.0
 0000924,-0.00000809,0.00000033,0.00000181,-0.00001719,0.00000110,-0.00
 000559,-0.00000026,0.00000024,-0.00000024,-0.00000393,0.00000095,-0.00
 000347,-0.00000043,-0.00000103,-0.00000051,-0.00004864,0.00001619,-0.0
 0001851,-0.00005167,0.00001995,-0.00001457,0.00003786,-0.00000921,-0.0
 0000893,0.00003873,-0.00001304,0.00001450,0.00000240,0.00000146,0.0000
 0047,-0.00000595,-0.00000100,0.00000741,0.00003096,-0.00001625,-0.0000
 0074,0.00003564,-0.00001729,0.00000942,-0.00000705,-0.00000467,-0.0000
 0008,-0.00009454,0.00001057,-0.00007089,-0.00001834,-0.00000328,0.0000
 1508,0.00003502,0.00000563,-0.00001068,0.00000156,-0.00005093,0.000061
 53,0.00004731,0.00054130,-0.00148688,-0.00014356,-0.00023283,0.0001938
 1,0.00026570,-0.00019052,-0.00007105,0.00889746,0.01442029,0.00667843,
 0.00044447,0.00257832,0.00637978,-0.06460484,-0.05773610,-0.02949495,-
 0.00578252,-0.00381188,0.00153669,0.00349949,-0.01576181,-0.01543219,0
 .05614188,-0.00001185,0.00000168,-0.00000247,0.00000385,-0.00000757,-0
 .00000415,0.00005094,0.00000553,-0.00001870,-0.00001780,-0.00000420,-0
 .00000676,0.00000585,-0.00000621,0.00000010,0.00001655,0.00000613,0.00
 000056,0.00000253,0.00000044,-0.00000088,0.00000458,-0.00000364,-0.000
 00035,0.00000041,0.00000060,0.00000062,0.00002699,0.00000305,0.0000156
 1,0.00001307,0.00001960,0.00001130,-0.00000808,-0.00001895,0.00000185,
 -0.00002064,0.00000295,-0.00000715,-0.00000222,-0.00000199,-0.00000046
 ,0.00000351,0.00000068,-0.00000535,-0.00001957,0.00000958,0.00000935,-
 0.00001162,-0.00000317,-0.00000335,0.00000461,0.00000460,-0.00000184,0
 .00014685,0.00000150,0.00013655,0.00000044,-0.00000084,-0.00001042,-0.
 00005460,-0.00002033,0.00002127,0.00016384,-0.00008002,-0.00022328,0.0
 0070920,-0.00076239,0.00139989,0.00021102,-0.00007321,-0.00031070,-0.0
 0021515,0.00008986,0.00001341,-0.00547911,-0.00424789,0.00040652,-0.00
 119533,0.00296349,-0.00417664,-0.05556530,-0.24514554,-0.15111543,-0.0
 0219631,0.00021236,-0.00151982,0.00326069,-0.00449210,-0.00490472,0.05
 974957,0.25178550,-0.00001149,-0.00000261,-0.00000696,-0.00000158,-0.0
 0000070,-0.00001137,0.00002266,-0.00004032,0.00005741,-0.00001903,0.00
 000376,0.00001021,0.00000237,0.00000906,-0.00000883,-0.00000229,-0.000
 00279,0.00001071,-0.00000411,0.00000047,0.00000187,-0.00001366,0.00000
 585,0.00000408,0.00000014,0.00000160,-0.00000290,0.00003077,-0.0000116
 0,0.00001589,0.00004325,-0.00001382,0.00002351,-0.00002605,0.00001098,
 -0.00000981,-0.00002698,0.00001057,-0.00001481,-0.00000221,-0.00000080
 ,-0.00000026,0.00000559,0.00000043,-0.00000642,-0.00002016,-0.00000206
 ,-0.00001793,-0.00002865,0.00001488,-0.00001541,0.00000106,0.00000202,
 0.00000532,-0.00005921,0.00005852,-0.00012915,0.00002308,-0.00000317,0
 .00000826,0.00000457,0.00000232,0.00000046,-0.00018741,0.00010076,0.00
 016753,-0.00124228,0.00074473,-0.00133561,0.00042751,0.00037205,0.0000
 6627,0.00018500,0.00008491,0.00002367,-0.00912457,-0.01004838,-0.00479
 109,0.00308056,-0.00610557,0.00198093,-0.02821114,-0.14989112,-0.14002
 838,0.00301188,-0.00068354,0.00125227,0.00056275,0.00512802,0.00331429
 ,0.03230292,0.16009264,0.13965825,0.00000075,-0.00000049,0.00000100,0.
 00000231,0.00000567,-0.00000044,0.00002135,-0.00002008,0.00000433,-0.0
 0000371,0.00000241,0.00000404,0.00000089,0.00000738,-0.00000352,0.0000
 0030,-0.00000127,0.00000311,-0.00000208,-0.00000052,0.00000040,-0.0000
 1319,-0.00000055,-0.00000232,-0.00000220,0.00000018,-0.00000049,0.0000
 0181,-0.00000765,-0.00000269,0.00001257,-0.00001670,-0.00000070,-0.000
 01055,0.00001136,0.00000063,-0.00000205,0.00000391,-0.00000089,-0.0000
 0130,-0.00000063,0.00000039,0.00000181,-0.00000062,-0.00000197,-0.0000
 0077,0.00001563,-0.00000004,-0.00000607,0.00000878,-0.00000089,-0.0000
 0053,-0.00000059,0.00000079,0.00000620,-0.00001184,-0.00003081,0.00002
 157,0.00000500,0.00000485,0.00000647,-0.00000712,-0.00000107,0.0002140
 0,0.00001033,0.00004827,-0.00010238,-0.00182367,-0.00034807,-0.0005880
 2,-0.00002851,0.00017880,0.00007712,0.00000941,-0.00007287,-0.00240644
 ,0.00327716,0.00515498,-0.02124119,-0.02417103,-0.01183957,0.00105501,
 0.00050350,0.00268556,-0.14122368,-0.13053126,-0.04958786,0.00919524,0
 .00519903,0.00134609,0.00090216,0.00003576,0.00004511,0.15468126,-0.00
 000243,0.00000072,-0.00000104,-0.00000207,-0.00000499,-0.00000166,-0.0
 0000671,0.00000533,0.00001014,-0.00000166,-0.00000027,-0.00000136,-0.0
 0000034,-0.00000474,0.00000121,0.00000159,0.00000100,-0.00000106,0.000
 00134,0.00000086,-0.00000031,0.00000593,0.00000309,0.00000116,0.000001
 34,0.00000068,-0.00000068,0.00000387,0.00000482,0.00000399,-0.00000265
 ,0.00001263,0.00000330,0.00000297,-0.00000981,0.00000069,-0.00000285,-
 0.00000174,-0.00000061,-0.00000006,0.00000034,-0.00000069,0.00000005,0
 .00000048,-0.00000054,-0.00000717,-0.00000772,0.00000032,0.00000046,-0
 .00000484,-0.00000029,0.00000126,0.00000129,-0.00000084,-0.00001957,0.
 00001764,-0.00000770,-0.00000172,0.00000345,-0.00000674,0.00000043,0.0
 0000327,0.00000138,-0.00010017,-0.00015008,0.00003804,-0.00028573,0.00
 085254,-0.00057095,0.00022522,0.00002957,-0.00010053,0.00003537,0.0000
 9594,0.00002357,0.00100718,0.00260677,-0.00073306,0.00214318,-0.000177
 00,0.00312830,0.00009158,-0.00021166,-0.00478040,-0.13948244,-0.228170
 38,-0.09530003,-0.01119198,-0.00299267,0.00041170,-0.00086493,0.000155
 56,-0.00019714,0.14750622,0.22890220,0.00000682,-0.00000266,0.00000317
 ,0.00000311,0.00000824,0.00000677,0.00000006,0.00000787,-0.00002857,0.
 00001063,-0.00000185,-0.00000282,-0.00000074,0.00000489,0.00000100,-0.
 00000190,-0.00000278,-0.00000033,-0.00000164,-0.00000172,0.00000051,0.
 00000318,-0.00000442,0.00000168,-0.00000156,-0.00000182,0.00000304,-0.
 00001036,-0.00000652,-0.00000929,-0.00000071,-0.00002557,-0.00001171,-
 0.00000321,0.00001946,0.00000226,0.00000889,0.00000061,0.00000309,0.00
 000217,0.00000063,0.00000114,-0.00000189,-0.00000032,0.00000350,0.0000
 1260,0.00000785,-0.00000323,0.00000289,0.00000589,0.00000226,-0.000001
 79,-0.00000264,0.00000090,0.00004542,-0.00004806,0.00004843,0.00000402
 ,-0.00000698,0.00000377,0.00000556,0.00000168,-0.00000572,0.00011930,0
 .00021863,-0.00008467,0.00060229,-0.00023951,0.00117800,0.00001775,0.0
 0009912,0.00005305,-0.00009059,-0.00010123,0.00000076,0.00369276,-0.00
 170511,-0.00041782,0.01013743,0.01670251,0.00343795,0.00208484,-0.0049
 7320,0.00023248,-0.05699983,-0.10008602,-0.08095769,-0.01217093,-0.007
 74650,0.00323036,-0.00064985,-0.00067305,0.00075472,0.05358560,0.09696
 603,0.07392798,-0.00001307,-0.00000347,-0.00000680,-0.00000213,-0.0000
 0653,-0.00001017,0.00004257,-0.00002714,0.00003452,-0.00002160,0.00000
 461,0.00000681,0.00000067,0.00000510,-0.00000955,0.00000166,-0.0000007
 7,0.00000730,-0.00000297,0.00000079,0.00000118,-0.00000436,0.00000449,
 0.00000502,-0.00000006,0.00000137,-0.00000194,0.00002981,-0.00000188,0
 .00001895,0.00002750,0.00001317,0.00002338,-0.00001420,-0.00001042,-0.
 00000861,-0.00002490,0.00000651,-0.00001341,-0.00000175,-0.00000096,-0
 .00000048,0.00000658,0.00000219,-0.00000694,-0.00002723,-0.00000166,-0
 .00001532,-0.00002067,0.00000303,-0.00001327,0.00000193,0.00000323,0.0
 0000305,-0.00000859,0.00006099,-0.00003953,0.00001387,0.00000122,0.000
 00500,0.00000575,-0.00000941,-0.00000298,0.00003459,-0.00007388,0.0000
 5908,0.00002541,0.00039395,0.00104612,0.00006294,0.00005689,-0.0000568
 1,-0.00039669,-0.00004666,0.00005151,-0.00280108,-0.00344484,0.0002356
 0,0.00326999,-0.00233428,0.00106493,-0.00798542,0.00841158,0.01070733,
 0.00139860,-0.00169705,-0.00288764,-0.26383255,0.03332635,0.14828944,0
 .00043070,0.00038730,-0.00076838,-0.00059668,0.00094448,-0.00041033,0.
 27040136,-0.00001200,0.00000119,-0.00000586,-0.00000541,-0.00001147,-0
 .00001097,0.00001185,-0.00002842,0.00003400,-0.00002023,0.00000184,0.0
 0000387,0.00000232,-0.00000258,-0.00000458,0.00000290,0.00000252,0.000
 00291,0.00000030,0.00000183,0.00000002,-0.00000643,0.00000571,0.000001
 42,0.00000160,0.00000202,-0.00000269,0.00002107,0.00000814,0.00001755,
 0.00000967,0.00003533,0.00002164,-0.00000040,-0.00002665,-0.00000701,-
 0.00001771,0.00000084,-0.00000892,-0.00000228,-0.00000088,-0.00000100,
 0.00000407,0.00000167,-0.00000541,-0.00001716,-0.00001014,-0.00000390,
 -0.00001002,-0.00000722,-0.00000831,0.00000240,0.00000418,0.00000077,-
 0.00005962,0.00006904,-0.00007456,0.00000246,-0.00000107,0.00000123,-0
 .00000297,-0.00000032,0.00000038,-0.00014420,-0.00008338,0.00013263,-0
 .00020027,0.00105154,0.00026085,0.00007828,0.00002469,-0.00001468,-0.0
 0014106,-0.00000827,0.00010141,-0.00487578,-0.00240658,-0.00248453,0.0
 0133026,0.00081044,-0.00762683,-0.01087777,0.00673087,0.01181117,0.018
 14257,0.00353053,-0.00516391,0.03138195,-0.05318511,-0.03541938,0.0013
 4914,-0.00039503,0.00036005,0.00002080,-0.00096224,0.00158653,-0.03596
 830,0.04484695,0.00000572,-0.00000162,0.00000129,0.00000298,0.00000435
 ,0.00000499,-0.00000269,0.00001225,-0.00001515,0.00000863,0.00000219,0
 .00000030,-0.00000248,0.00000191,-0.00000034,-0.00000347,-0.00000167,0
 .00000075,-0.00000139,-0.00000021,0.00000074,0.00000289,-0.00000080,0.
 00000158,-0.00000120,-0.00000102,0.00000115,-0.00001319,0.00000072,-0.
 00000662,-0.00000661,-0.00001198,-0.00000719,0.00000218,0.00000919,-0.
 00000172,0.00001076,-0.00000226,0.00000317,0.00000151,0.00000055,0.000
 00059,-0.00000171,-0.00000072,0.00000266,0.00000669,0.00000280,-0.0000
 0438,0.00000676,0.00000005,0.00000102,-0.00000236,-0.00000190,0.000001
 46,0.00001546,-0.00000022,0.00005108,0.00001044,0.00000247,-0.00000104
 ,0.00000706,-0.00000574,-0.00000495,0.00011024,0.00001792,-0.00007352,
 0.00007448,-0.00012911,0.00085077,0.00004507,0.00002552,-0.00000594,-0
 .00027568,-0.00006996,0.00006640,-0.00065769,-0.00309985,0.00123499,0.
 00409154,-0.00577780,0.00219159,-0.00531096,0.00188906,0.00353776,0.01
 362633,0.00504205,-0.00433009,0.14668100,-0.03640399,-0.13550902,0.000
 04648,0.00087588,-0.00097673,-0.00116972,0.00111580,-0.00137499,-0.157
 30706,0.03650612,0.13435940\\0.00000045,-0.00000064,0.00000268,-0.0000
 0176,-0.00000091,0.00000230,0.00000080,-0.00000004,-0.00000019,0.00000
 234,0.00000349,-0.00000183,-0.00000006,0.00000071,-0.00000036,-0.00000
 045,-0.00000047,0.00000043,-0.00000041,-0.00000088,0.00000010,0.000002
 57,-0.00000071,-0.00000044,0.00000018,-0.00000035,0.00000114,0.0000009
 2,-0.00000019,0.00000074,-0.00000301,-0.00000191,0.00000395,-0.0000010
 8,-0.00000007,0.00000232,-0.00000050,0.00000012,0.00000160,0.00000041,
 0.00000414,-0.00000228,0.00000111,0.00000255,0.00000015,-0.00000402,-0
 .00000143,-0.00000131,0.00000263,0.00000287,-0.00000227,-0.00000208,-0
 .00000153,0.00000411,0.00000126,-0.00000107,-0.00000139,0.,0.00000054,
 0.00000253,0.00000095,0.00000293,-0.00000061,0.00000072,-0.00000004,0.
 00000030,-0.00000039,-0.00000042,-0.00000112,-0.00000061,-0.00000016,0
 .00000056,0.00000079,0.00000083,-0.00000029,-0.00000006,-0.00000056,-0
 .00000106,0.00000008,-0.00000020,-0.00000178,-0.00000017,-0.00000114,-
 0.00000070,0.00000007,-0.00000122,-0.00000230,-0.00000011,-0.00000061,
 -0.00000085,-0.00000054,-0.00000149,-0.00000010,0.00000035,-0.00000046
 ,-0.00000250,-0.00000036,-0.00000164,-0.00000153\\\@


 The chemist is a guest at the physicist's table and
 frequently dines well.
                   -- Richard Bersohn
 Job cpu time:       0 days  1 hours 50 minutes 31.2 seconds.
 Elapsed time:       0 days  0 hours 28 minutes  6.9 seconds.
 File lengths (MBytes):  RWF=    484 Int=      0 D2E=      0 Chk=     16 Scr=      1
 Normal termination of Gaussian 16 at Mon Nov 18 15:52:33 2024.
